 running on    4 total cores
 distrk:  each k-point on    4 cores,    1 groups
 distr:  one band on    2 cores,    2 groups
 using from now: INCAR     
 vasp.5.4.1 05Feb16 (build Mar 17 2017 08:48:41) complex                        
  
 POSCAR found type information on POSCAR  Si
 POSCAR found :  1 types and       8 ions
 scaLAPACK will be used
 LDA part: xc-table for Pade appr. of Perdew
 POSCAR, INCAR and KPOINTS ok, starting setup
 FFT: planning ...
 WAVECAR not read
 entering main loop
       N       E                     dE             d eps       ncg     rms          rms(c)
DAV:   1     0.500670247964E+02    0.50067E+02   -0.91337E+03  1540   0.800E+02
DAV:   2    -0.399337006888E+02   -0.90001E+02   -0.83641E+02  2048   0.137E+02
DAV:   3    -0.439852903779E+02   -0.40516E+01   -0.39951E+01  2050   0.283E+01
DAV:   4    -0.440550134647E+02   -0.69723E-01   -0.69580E-01  1880   0.459E+00
DAV:   5    -0.440571417669E+02   -0.21283E-02   -0.21275E-02  2018   0.657E-01    0.591E+00
RMM:   6    -0.435927280264E+02    0.46441E+00   -0.25027E-01  1540   0.202E+00    0.354E+00
RMM:   7    -0.433778115485E+02    0.21492E+00   -0.55432E-01  1540   0.310E+00    0.293E-01
RMM:   8    -0.433831208980E+02   -0.53093E-02   -0.16837E-02  1569   0.586E-01    0.460E-02
RMM:   9    -0.433835420171E+02   -0.42112E-03   -0.12125E-03  1573   0.174E-01    0.216E-02
RMM:  10    -0.433836218206E+02   -0.79803E-04   -0.27559E-04  1540   0.869E-02    0.695E-03
RMM:  11    -0.433836105488E+02    0.11272E-04   -0.18693E-05   986   0.230E-02    0.132E-03
RMM:  12    -0.433836106959E+02   -0.14709E-06   -0.33381E-06   910   0.103E-02
   1 F= -.43383611E+02 E0= -.43383611E+02  d E =-.433836E+02
 curvature:   0.00 expect dE= 0.000E+00 dE for cont linesearch  0.000E+00
 trial: gam= 0.00000 g(F)=  0.166E-43 g(S)=  0.000E+00 ort = 0.000E+00 (trialstep = 0.100E+01)
 search vector abs. value=  0.100E-09
 reached required accuracy - stopping structural energy minimisation
 running on    4 total cores
 distrk:  each k-point on    4 cores,    1 groups
 distr:  one band on    2 cores,    2 groups
 using from now: INCAR     
 vasp.5.4.1 05Feb16 (build Mar 17 2017 08:48:41) complex                        
  
 POSCAR found type information on POSCAR  Si
 POSCAR found :  1 types and       8 ions
 scaLAPACK will be used
 LDA part: xc-table for Pade appr. of Perdew
 POSCAR, INCAR and KPOINTS ok, starting setup
 FFT: planning ...
 WAVECAR not read
 entering main loop
       N       E                     dE             d eps       ncg     rms          rms(c)
DAV:   1     0.515563546708E+02    0.51556E+02   -0.91940E+03  3300   0.803E+02
DAV:   2    -0.398630792613E+02   -0.91419E+02   -0.85700E+02  4442   0.140E+02
DAV:   3    -0.438207281390E+02   -0.39576E+01   -0.39068E+01  4284   0.283E+01
DAV:   4    -0.438867861720E+02   -0.66058E-01   -0.65912E-01  4082   0.454E+00
DAV:   5    -0.438887153237E+02   -0.19292E-02   -0.19283E-02  4274   0.629E-01    0.622E+00
RMM:   6    -0.433145515420E+02    0.57416E+00   -0.31860E-01  3300   0.229E+00    0.368E+00
RMM:   7    -0.430610412348E+02    0.25351E+00   -0.66467E-01  3300   0.339E+00    0.318E-01
RMM:   8    -0.430659578744E+02   -0.49166E-02   -0.19131E-02  3359   0.625E-01    0.467E-02
RMM:   9    -0.430663187921E+02   -0.36092E-03   -0.13415E-03  3401   0.177E-01    0.241E-02
RMM:  10    -0.430663898797E+02   -0.71088E-04   -0.23384E-04  3300   0.817E-02    0.696E-03
RMM:  11    -0.430663840587E+02    0.58210E-05   -0.14034E-05  2117   0.203E-02
   1 F= -.43066384E+02 E0= -.43066384E+02  d E =-.430664E+02
 curvature:   0.00 expect dE= 0.000E+00 dE for cont linesearch  0.000E+00
 trial: gam= 0.00000 g(F)=  0.167E-43 g(S)=  0.000E+00 ort = 0.000E+00 (trialstep = 0.100E+01)
 search vector abs. value=  0.100E-09
 reached required accuracy - stopping structural energy minimisation
 running on    4 total cores
 distrk:  each k-point on    4 cores,    1 groups
 distr:  one band on    2 cores,    2 groups
 using from now: INCAR     
 vasp.5.4.1 05Feb16 (build Mar 17 2017 08:48:41) complex                        
  
 POSCAR found type information on POSCAR  Si
 POSCAR found :  1 types and       8 ions
 scaLAPACK will be used
 LDA part: xc-table for Pade appr. of Perdew
 POSCAR, INCAR and KPOINTS ok, starting setup
 WARNING: small aliasing (wrap around) errors must be expected
 FFT: planning ...
 WAVECAR not read
 entering main loop
       N       E                     dE             d eps       ncg     rms          rms(c)
DAV:   1     0.511429322783E+02    0.51143E+02   -0.92041E+03  3300   0.803E+02
DAV:   2    -0.400084424669E+02   -0.91151E+02   -0.85991E+02  4448   0.138E+02
DAV:   3    -0.438928476522E+02   -0.38844E+01   -0.38374E+01  4270   0.282E+01
DAV:   4    -0.439598467457E+02   -0.66999E-01   -0.66869E-01  4102   0.462E+00
DAV:   5    -0.439615194013E+02   -0.16727E-02   -0.16721E-02  4210   0.611E-01    0.617E+00
RMM:   6    -0.434072144018E+02    0.55430E+00   -0.30656E-01  3300   0.224E+00    0.366E+00
RMM:   7    -0.431601580950E+02    0.24706E+00   -0.64582E-01  3300   0.334E+00    0.313E-01
RMM:   8    -0.431652399857E+02   -0.50819E-02   -0.18749E-02  3364   0.618E-01    0.459E-02
RMM:   9    -0.431656196855E+02   -0.37970E-03   -0.12629E-03  3385   0.175E-01    0.228E-02
RMM:  10    -0.431656938519E+02   -0.74166E-04   -0.24520E-04  3302   0.832E-02    0.619E-03
RMM:  11    -0.431656852085E+02    0.86434E-05   -0.14972E-05  2105   0.211E-02
   1 F= -.43165685E+02 E0= -.43165685E+02  d E =-.431657E+02
 curvature:   0.00 expect dE= 0.000E+00 dE for cont linesearch  0.000E+00
 trial: gam= 0.00000 g(F)=  0.199E-43 g(S)=  0.000E+00 ort = 0.000E+00 (trialstep = 0.100E+01)
 search vector abs. value=  0.100E-09
 reached required accuracy - stopping structural energy minimisation
+=============================================================+
| EEEEE L       A   SSSSS TTTTT IIIII CCCCC 33333 RRRRR DDD   |
| E     L      A A  S       T     I   C         3 R   R D  D  |
| EEEE  L     A   A SSSSS   T     I   C      3333 RRRRR D   D |
| E     L     AAAAA     S   T     I   C         3 R  R  D  D  |
| EEEEE LLLLL A   A SSSSS   T   IIIII CCCCC 33333 R   R DDD   |
+-------------------------------------------------------------+
|             Version: ELASTIC3PY  version 2.4.0              |
|                Date: 2019-05-18                             |
|              Author: Liao Mingqing                          |
|              E_mail: liaomq1900127@163.com                  |
|     FGMS @ Harbin Institute of Technology(HIT)              |
|    URL:https://github.com/hitliaomq/ELASTIC3rd              |
|Please Cite:                                                 |
| Mingqing Liao,ELASTIC3rd,(2018).doi:10.5281/zenodo.2525580  |
+=============================================================+
===================The input parameters===================
The Runing mode is : NEW
The BaseName is : Si
The crystal symmetry is : c1
The order of elastic is : 3.0
The code for calculating the energy : VASP
The maximum of the strain : 6.0
The steps run in every mode : 13.0
The core used in energy calculate : 4.0

====================Crystal Structure====================
BaseVec:
     5.4669454405     0.0000000000     0.0000000000
     0.0000000000     5.4669449631     0.0000000000
     0.0000000000     0.0000000000     5.4669454405
Lattice Parameter:
    a         b         c      alpha   beta    gamma
5.466945  5.466945  5.466945  90.000  90.000  90.000
Volume : 163.393276309

mpirun -np 4 vasp_std
/home/opensoft/liaomingqing/Elastic3rd/VASP/Si/Elastic3rd/Si/Mode0
Energy:
       eV             Hartree            kJ/mol            kcal/mol
-43.3836110000  -1.5943173357  -4185.8811736079  -1000.4496746827
[-4.33836110e+01 -1.59431734e+00 -4.18588117e+03 -1.00044967e+03]

==================Deformed Crystal========================
----------------------------------------------------------
Start calculating Mode 1
/home/opensoft/liaomingqing/Elastic3rd/VASP/Si/Elastic3rd
Start calculating Strain -6.0 in Mode 1
BaseVec:
     5.1284494105     0.0000000000     0.0000000000
     0.0000000000     5.4669449631     0.0000000000
     0.0000000000     0.0000000000     5.4669454405
Lattice Parameter:
    a         b         c      alpha   beta    gamma
5.128449  5.466945  5.466945  90.000  90.000  90.000
Volume : 153.27647965

mpirun -np 4 vasp_std
/home/opensoft/liaomingqing/Elastic3rd/VASP/Si/Elastic3rd/Si/Mode1/Strain-6.0
Energy:
       eV             Hartree            kJ/mol            kcal/mol
-43.0663840000  -1.5826594655  -4155.2734280456  -993.1342474595
[-4.30663840e+01 -1.58265947e+00 -4.15527343e+03 -9.93134247e+02]
Energy:
       eV             Hartree            kJ/mol            kcal/mol
-43.0663840000  -1.5826594655  -4155.2734280456  -993.1342474595
End of Strain -6.0 in Mode 1

Start calculating Strain -5.0 in Mode 1
BaseVec:
     5.1863998308     0.0000000000     0.0000000000
     0.0000000000     5.4669449631     0.0000000000
     0.0000000000     0.0000000000     5.4669454405
Lattice Parameter:
    a         b         c      alpha   beta    gamma
5.186400  5.466945  5.466945  90.000  90.000  90.000
Volume : 155.008472248

mpirun -np 4 vasp_std
/home/opensoft/liaomingqing/Elastic3rd/VASP/Si/Elastic3rd/Si/Mode1/Strain-5.0
Energy:
       eV             Hartree            kJ/mol            kcal/mol
-43.1656850000  -1.5863087078  -4164.8545158536  -995.4241825492
[-4.31656850e+01 -1.58630871e+00 -4.16485452e+03 -9.95424183e+02]
Energy:
       eV             Hartree            kJ/mol            kcal/mol
-43.1656850000  -1.5863087078  -4164.8545158536  -995.4241825492
End of Strain -5.0 in Mode 1

Start calculating Strain -4.0 in Mode 1
BaseVec:
     5.2437098560     0.0000000000     0.0000000000
     0.0000000000     5.4669449631     0.0000000000
     0.0000000000     0.0000000000     5.4669454405
Lattice Parameter: running on    4 total cores
 distrk:  each k-point on    4 cores,    1 groups
 distr:  one band on    2 cores,    2 groups
 using from now: INCAR     
 vasp.5.4.1 05Feb16 (build Mar 17 2017 08:48:41) complex                        
  
 POSCAR found type information on POSCAR  Si
 POSCAR found :  1 types and       8 ions
 scaLAPACK will be used
 LDA part: xc-table for Pade appr. of Perdew
 POSCAR, INCAR and KPOINTS ok, starting setup
 FFT: planning ...
 WAVECAR not read
 entering main loop
       N       E                     dE             d eps       ncg     rms          rms(c)
DAV:   1     0.513104543157E+02    0.51310E+02   -0.91716E+03  3300   0.801E+02
DAV:   2    -0.399760249419E+02   -0.91286E+02   -0.86034E+02  4490   0.139E+02
DAV:   3    -0.439446730217E+02   -0.39686E+01   -0.39205E+01  4268   0.283E+01
DAV:   4    -0.440134193140E+02   -0.68746E-01   -0.68590E-01  4104   0.465E+00
DAV:   5    -0.440153010312E+02   -0.18817E-02   -0.18809E-02  4286   0.624E-01    0.611E+00
RMM:   6    -0.434802298893E+02    0.53507E+00   -0.29464E-01  3300   0.220E+00    0.363E+00
RMM:   7    -0.432399270321E+02    0.24030E+00   -0.62752E-01  3300   0.329E+00    0.309E-01
RMM:   8    -0.432451239040E+02   -0.51969E-02   -0.18456E-02  3367   0.612E-01    0.458E-02
RMM:   9    -0.432455137120E+02   -0.38981E-03   -0.12483E-03  3378   0.174E-01    0.225E-02
RMM:  10    -0.432455898808E+02   -0.76169E-04   -0.25202E-04  3300   0.840E-02    0.621E-03
RMM:  11    -0.432455810030E+02    0.88778E-05   -0.15792E-05  2112   0.214E-02
   1 F= -.43245581E+02 E0= -.43245581E+02  d E =-.432456E+02
 curvature:   0.00 expect dE= 0.000E+00 dE for cont linesearch  0.000E+00
 trial: gam= 0.00000 g(F)=  0.142E-43 g(S)=  0.000E+00 ort = 0.000E+00 (trialstep = 0.100E+01)
 search vector abs. value=  0.100E-09
 reached required accuracy - stopping structural energy minimisation
 running on    4 total cores
 distrk:  each k-point on    4 cores,    1 groups
 distr:  one band on    2 cores,    2 groups
 using from now: INCAR     
 vasp.5.4.1 05Feb16 (build Mar 17 2017 08:48:41) complex                        
  
 POSCAR found type information on POSCAR  Si
 POSCAR found :  1 types and       8 ions
 scaLAPACK will be used
 LDA part: xc-table for Pade appr. of Perdew
 POSCAR, INCAR and KPOINTS ok, starting setup
 FFT: planning ...
 WAVECAR not read
 entering main loop
       N       E                     dE             d eps       ncg     rms          rms(c)
DAV:   1     0.534619680723E+02    0.53462E+02   -0.91361E+03  3300   0.800E+02
DAV:   2    -0.396032699062E+02   -0.93065E+02   -0.87164E+02  4338   0.139E+02
DAV:   3    -0.439738724953E+02   -0.43706E+01   -0.43110E+01  4334   0.294E+01
DAV:   4    -0.440490355241E+02   -0.75163E-01   -0.74947E-01  4136   0.475E+00
DAV:   5    -0.440509291465E+02   -0.18936E-02   -0.18928E-02  4212   0.653E-01    0.606E+00
RMM:   6    -0.435345162411E+02    0.51641E+00   -0.28289E-01  3300   0.215E+00    0.361E+00
RMM:   7    -0.433008413401E+02    0.23367E+00   -0.60912E-01  3300   0.324E+00    0.305E-01
RMM:   8    -0.433060730682E+02   -0.52317E-02   -0.18011E-02  3364   0.605E-01    0.458E-02
RMM:   9    -0.433064718891E+02   -0.39882E-03   -0.12618E-03  3378   0.175E-01    0.225E-02
RMM:  10    -0.433065488292E+02   -0.76940E-04   -0.25635E-04  3300   0.847E-02    0.631E-03
RMM:  11    -0.433065398931E+02    0.89361E-05   -0.16253E-05  2126   0.217E-02
   1 F= -.43306540E+02 E0= -.43306540E+02  d E =-.433065E+02
 curvature:   0.00 expect dE= 0.000E+00 dE for cont linesearch  0.000E+00
 trial: gam= 0.00000 g(F)=  0.147E-43 g(S)=  0.000E+00 ort = 0.000E+00 (trialstep = 0.100E+01)
 search vector abs. value=  0.100E-09
 reached required accuracy - stopping structural energy minimisation
 running on    4 total cores
 distrk:  each k-point on    4 cores,    1 groups
 distr:  one band on    2 cores,    2 groups
 using from now: INCAR     
 vasp.5.4.1 05Feb16 (build Mar 17 2017 08:48:41) complex                        
  
 POSCAR found type information on POSCAR  Si
 POSCAR found :  1 types and       8 ions
 scaLAPACK will be used
 LDA part: xc-table for Pade appr. of Perdew
 POSCAR, INCAR and KPOINTS ok, starting setup
 FFT: planning ...
 WAVECAR not read
 entering main loop
       N       E                     dE             d eps       ncg     rms          rms(c)
DAV:   1     0.504168290004E+02    0.50417E+02   -0.91312E+03  3300   0.801E+02
DAV:   2    -0.398842241308E+02   -0.90301E+02   -0.84686E+02  4414   0.138E+02
DAV:   3    -0.439904435404E+02   -0.41062E+01   -0.40352E+01  4292   0.284E+01
DAV:   4    -0.440673234983E+02   -0.76880E-01   -0.76562E-01  4128   0.476E+00
DAV:   5    -0.440692008688E+02   -0.18774E-02   -0.18768E-02  4174   0.635E-01    0.601E+00
RMM:   6    -0.435707605157E+02    0.49844E+00   -0.27178E-01  3300   0.211E+00    0.358E+00
RMM:   7    -0.433435415361E+02    0.22722E+00   -0.59069E-01  3300   0.319E+00    0.301E-01
RMM:   8    -0.433488067678E+02   -0.52652E-02   -0.17612E-02  3365   0.599E-01    0.458E-02
RMM:   9    -0.433492130096E+02   -0.40624E-03   -0.12435E-03  3373   0.174E-01    0.222E-02
RMM:  10    -0.433492911464E+02   -0.78137E-04   -0.26377E-04  3300   0.855E-02    0.642E-03
RMM:  11    -0.433492815068E+02    0.96396E-05   -0.17082E-05  2129   0.221E-02
   1 F= -.43349282E+02 E0= -.43349282E+02  d E =-.433493E+02
 curvature:   0.00 expect dE= 0.000E+00 dE for cont linesearch  0.000E+00
 trial: gam= 0.00000 g(F)=  0.111E-43 g(S)=  0.000E+00 ort = 0.000E+00 (trialstep = 0.100E+01)
 search vector abs. value=  0.100E-09
 reached required accuracy - stopping structural energy minimisation
 running on    4 total cores
 distrk:  each k-point on    4 cores,    1 groups
 distr:  one band on    2 cores,    2 groups
 using from now: INCAR     
 vasp.5.4.1 05Feb16 (build Mar 17 2017 08:48:41) complex                        
  
 POSCAR found type information on POSCAR  Si
 POSCAR found :  1 types and       8 ions
 scaLAPACK will be used
 LDA part: xc-table for Pade appr. of Perdew
 POSCAR, INCAR and KPOINTS ok, starting setup
 FFT: planning ...
 WAVECAR not read
 entering main loop
       N       E                     dE             d eps       ncg     rms          rms(c)
DAV:   1     0.520701001694E+02    0.52070E+02   -0.91650E+03  3300   0.800E+02
DAV:   2    -0.398970532414E+02   -0.91967E+02   -0.86298E+02  4490   0.138E+02
DAV:   3    -0.439945356496E+02   -0.40975E+01   -0.40458E+01  4272   0.284E+01
DAV:   4    -0.440687865501E+02   -0.74251E-01   -0.74049E-01  4074   0.474E+00
DAV:   5    -0.440709486636E+02   -0.21621E-02   -0.21610E-02  4230   0.661E-01    0.596E+00
RMM:   6    -0.435898501828E+02    0.48110E+00   -0.26054E-01  3300   0.206E+00    0.356E+00
RMM:   7    -0.433688784461E+02    0.22097E+00   -0.57177E-01  3300   0.314E+00    0.297E-01
RMM:   8    -0.433741660164E+02   -0.52876E-02   -0.17185E-02  3364   0.592E-01    0.459E-02
RMM:   9    -0.433745803934E+02   -0.41438E-03   -0.12359E-03  3369   0.174E-01    0.220E-02
RMM:  10    -0.433746591200E+02   -0.78727E-04   -0.26704E-04  3300   0.861E-02    0.661E-03
RMM:  11    -0.433746488587E+02    0.10261E-04   -0.17461E-05  2129   0.224E-02    0.137E-03
RMM:  12    -0.433746489421E+02   -0.83400E-07   -0.32285E-06  1961   0.101E-02
   1 F= -.43374649E+02 E0= -.43374649E+02  d E =-.433746E+02
 curvature:   0.00 expect dE= 0.000E+00 dE for cont linesearch  0.000E+00
 trial: gam= 0.00000 g(F)=  0.196E-43 g(S)=  0.000E+00 ort = 0.000E+00 (trialstep = 0.100E+01)
 search vector abs. value=  0.100E-09
 reached required accuracy - stopping structural energy minimisation
 running on    4 total cores
 distrk:  each k-point on    4 cores,    1 groups
 distr:  one band on    2 cores,    2 groups
 using from now: INCAR     
 vasp.5.4.1 05Feb16 (build Mar 17 2017 08:48:41) complex                        
  
 POSCAR found type information on POSCAR  Si
 POSCAR found :  1 types and       8 ions
 scaLAPACK will be used
 LDA part: xc-table for Pade appr. of Perdew
 POSCAR, INCAR and KPOINTS ok, starting setup
 WARNING: small aliasing (wrap around) errors must be expected
 FFT: planning ...
 WAVECAR not read
 entering main loop
       N       E                     dE             d eps       ncg     rms          rms(c)
DAV:   1     0.508114954621E+02    0.50811E+02   -0.91250E+03  3300   0.799E+02
DAV:   2    -0.400367558650E+02   -0.90848E+02   -0.85691E+02  4548   0.137E+02
DAV:   3    -0.439581152566E+02   -0.39214E+01   -0.38779E+01  4228   0.281E+01
DAV:   4    -0.440267469396E+02   -0.68632E-01   -0.68501E-01  4154   0.468E+00
DAV:   5    -0.440283912399E+02   -0.16443E-02   -0.16436E-02  4208   0.610E-01    0.586E+00
RMM:   6    -0.435800953958E+02    0.44830E+00   -0.24012E-01  3300   0.197E+00    0.351E+00
RMM:   7    -0.433709727311E+02    0.20912E+00   -0.53824E-01  3300   0.305E+00    0.289E-01
RMM:   8    -0.433762956181E+02   -0.53229E-02   -0.16533E-02  3372   0.581E-01    0.458E-02
RMM:   9    -0.433767161917E+02   -0.42057E-03   -0.11905E-03  3353   0.173E-01    0.214E-02
RMM:  10    -0.433767962074E+02   -0.80016E-04   -0.27642E-04  3300   0.871E-02    0.702E-03
RMM:  11    -0.433767847040E+02    0.11503E-04   -0.18832E-05  2150   0.231E-02    0.130E-03
RMM:  12    -0.433767848488E+02   -0.14476E-06   -0.33347E-06  1980   0.103E-02
   1 F= -.43376785E+02 E0= -.43376785E+02  d E =-.433768E+02
 curvature:   0.00 expect dE= 0.000E+00 dE for cont linesearch  0.000E+00
 trial: gam= 0.00000 g(F)=  0.100E-43 g(S)=  0.000E+00 ort = 0.000E+00 (trialstep = 0.100E+01)
 search vector abs. value=  0.100E-09
 reached required accuracy - stopping structural energy minimisation

    a         b         c      alpha   beta    gamma
5.243710  5.466945  5.466945  90.000  90.000  90.000
Volume : 156.721325044

mpirun -np 4 vasp_std
/home/opensoft/liaomingqing/Elastic3rd/VASP/Si/Elastic3rd/Si/Mode1/Strain-4.0
Energy:
       eV             Hartree            kJ/mol            kcal/mol
-43.2455810000  -1.5892448298  -4172.5633062133  -997.2666277806
[-4.32455810e+01 -1.58924483e+00 -4.17256331e+03 -9.97266628e+02]
Energy:
       eV             Hartree            kJ/mol            kcal/mol
-43.2455810000  -1.5892448298  -4172.5633062133  -997.2666277806
End of Strain -4.0 in Mode 1

Start calculating Strain -3.0 in Mode 1
BaseVec:
     5.3004002587     0.0000000000     0.0000000000
     0.0000000000     5.4669449631     0.0000000000
     0.0000000000     0.0000000000     5.4669454405
Lattice Parameter:
    a         b         c      alpha   beta    gamma
5.300400  5.466945  5.466945  90.000  90.000  90.000
Volume : 158.41565888

mpirun -np 4 vasp_std
/home/opensoft/liaomingqing/Elastic3rd/VASP/Si/Elastic3rd/Si/Mode1/Strain-3.0
Energy:
       eV             Hartree            kJ/mol            kcal/mol
-43.3065400000  -1.5914850304  -4178.4449542500  -998.6723754884
[-4.33065400e+01 -1.59148503e+00 -4.17844495e+03 -9.98672375e+02]
Energy:
       eV             Hartree            kJ/mol            kcal/mol
-43.3065400000  -1.5914850304  -4178.4449542500  -998.6723754884
End of Strain -3.0 in Mode 1

Start calculating Strain -2.0 in Mode 1
BaseVec:
     5.3564907124     0.0000000000     0.0000000000
     0.0000000000     5.4669449631     0.0000000000
     0.0000000000     0.0000000000     5.4669454405
Lattice Parameter:
    a         b         c      alpha   beta    gamma
5.356491  5.466945  5.466945  90.000  90.000  90.000
Volume : 160.092061743

mpirun -np 4 vasp_std
/home/opensoft/liaomingqing/Elastic3rd/VASP/Si/Elastic3rd/Si/Mode1/Strain-2.0
Energy:
       eV             Hartree            kJ/mol            kcal/mol
-43.3492820000  -1.5930557690  -4182.5689293871  -999.6580292643
[-4.33492820e+01 -1.59305577e+00 -4.18256893e+03 -9.99658029e+02]
Energy:
       eV             Hartree            kJ/mol            kcal/mol
-43.3492820000  -1.5930557690  -4182.5689293871  -999.6580292643
End of Strain -2.0 in Mode 1

Start calculating Strain -1.0 in Mode 1
BaseVec:
     5.4119998707     0.0000000000     0.0000000000
     0.0000000000     5.4669449631     0.0000000000
     0.0000000000     0.0000000000     5.4669454405
Lattice Parameter:
    a         b         c      alpha   beta    gamma
5.412000  5.466945  5.466945  90.000  90.000  90.000
Volume : 161.751091149

mpirun -np 4 vasp_std
/home/opensoft/liaomingqing/Elastic3rd/VASP/Si/Elastic3rd/Si/Mode1/Strain-1.0
Energy:
       eV             Hartree            kJ/mol            kcal/mol
-43.3746490000  -1.5939879885  -4185.0164722560  -1000.2430060865
[-4.33746490e+01 -1.59398799e+00 -4.18501647e+03 -1.00024301e+03]
Energy:
       eV             Hartree            kJ/mol            kcal/mol
-43.3746490000  -1.5939879885  -4185.0164722560  -1000.2430060865
End of Strain -1.0 in Mode 1

Start calculating Strain 0.0 in Mode 1
End of Strain 0.0 in Mode 1

Start calculating Strain 1.0 in Mode 1
BaseVec:
     5.5213442474     0.0000000000     0.0000000000
     0.0000000000     5.4669449631     0.0000000000
     0.0000000000     0.0000000000     5.4669454405
Lattice Parameter:
    a         b         c      alpha   beta    gamma
5.521344  5.466945  5.466945  90.000  90.000  90.000
Volume : 165.019120098

mpirun -np 4 vasp_std
/home/opensoft/liaomingqing/Elastic3rd/VASP/Si/Elastic3rd/Si/Mode1/Strain1.0
Energy:
       eV             Hartree            kJ/mol            kcal/mol
-43.3767850000  -1.5940664850  -4185.2225648791  -1000.2922634087
[-4.33767850e+01 -1.59406649e+00 -4.18522256e+03 -1.00029226e+03]
Energy:
       eV             Hartree            kJ/mol            kcal/mol
-43.3767850000  -1.5940664850  -4185.2225648791  -1000.2922634087
End of Strain 1.0 in Mode 1

Start calculating Strain 2.0 in Mode 1
BaseVec:
     5.5752122962     0.0000000000     0.00 running on    4 total cores
 distrk:  each k-point on    4 cores,    1 groups
 distr:  one band on    2 cores,    2 groups
 using from now: INCAR     
 vasp.5.4.1 05Feb16 (build Mar 17 2017 08:48:41) complex                        
  
 POSCAR found type information on POSCAR  Si
 POSCAR found :  1 types and       8 ions
 scaLAPACK will be used
 LDA part: xc-table for Pade appr. of Perdew
 POSCAR, INCAR and KPOINTS ok, starting setup
 FFT: planning ...
 WAVECAR not read
 entering main loop
       N       E                     dE             d eps       ncg     rms          rms(c)
DAV:   1     0.489264649909E+02    0.48926E+02   -0.90874E+03  3300   0.797E+02
DAV:   2    -0.398277616938E+02   -0.88754E+02   -0.83294E+02  4466   0.136E+02
DAV:   3    -0.439057772060E+02   -0.40780E+01   -0.40233E+01  4268   0.283E+01
DAV:   4    -0.439832536913E+02   -0.77476E-01   -0.77301E-01  4102   0.482E+00
DAV:   5    -0.439855472554E+02   -0.22936E-02   -0.22925E-02  4288   0.681E-01    0.582E+00
RMM:   6    -0.435527222627E+02    0.43282E+00   -0.23054E-01  3300   0.193E+00    0.349E+00
RMM:   7    -0.433492529392E+02    0.20347E+00   -0.52143E-01  3300   0.300E+00    0.285E-01
RMM:   8    -0.433545747220E+02   -0.53218E-02   -0.16122E-02  3371   0.576E-01    0.459E-02
RMM:   9    -0.433550025494E+02   -0.42783E-03   -0.12035E-03  3348   0.174E-01    0.213E-02
RMM:  10    -0.433550827418E+02   -0.80192E-04   -0.28208E-04  3300   0.878E-02    0.715E-03
RMM:  11    -0.433550710910E+02    0.11651E-04   -0.19648E-05  2141   0.235E-02    0.131E-03
RMM:  12    -0.433550712384E+02   -0.14740E-06   -0.34092E-06  1973   0.105E-02
   1 F= -.43355071E+02 E0= -.43355071E+02  d E =-.433551E+02
 curvature:   0.00 expect dE= 0.000E+00 dE for cont linesearch  0.000E+00
 trial: gam= 0.00000 g(F)=  0.266E-43 g(S)=  0.000E+00 ort = 0.000E+00 (trialstep = 0.100E+01)
 search vector abs. value=  0.100E-09
 reached required accuracy - stopping structural energy minimisation
 running on    4 total cores
 distrk:  each k-point on    4 cores,    1 groups
 distr:  one band on    2 cores,    2 groups
 using from now: INCAR     
 vasp.5.4.1 05Feb16 (build Mar 17 2017 08:48:41) complex                        
  
 POSCAR found type information on POSCAR  Si
 POSCAR found :  1 types and       8 ions
 scaLAPACK will be used
 LDA part: xc-table for Pade appr. of Perdew
 POSCAR, INCAR and KPOINTS ok, starting setup
 FFT: planning ...
 WAVECAR not read
 entering main loop
       N       E                     dE             d eps       ncg     rms          rms(c)
DAV:   1     0.506364580519E+02    0.50636E+02   -0.90188E+03  3300   0.794E+02
DAV:   2    -0.396851769555E+02   -0.90322E+02   -0.84965E+02  4548   0.136E+02
DAV:   3    -0.438546888355E+02   -0.41695E+01   -0.41212E+01  4284   0.284E+01
DAV:   4    -0.439273661331E+02   -0.72677E-01   -0.72495E-01  4130   0.467E+00
DAV:   5    -0.439293286422E+02   -0.19625E-02   -0.19619E-02  4206   0.656E-01    0.577E+00
RMM:   6    -0.435113489914E+02    0.41798E+00   -0.22123E-01  3300   0.189E+00    0.346E+00
RMM:   7    -0.433133338626E+02    0.19802E+00   -0.50520E-01  3300   0.296E+00    0.281E-01
RMM:   8    -0.433186522810E+02   -0.53184E-02   -0.15744E-02  3371   0.571E-01    0.459E-02
RMM:   9    -0.433190838221E+02   -0.43154E-03   -0.12019E-03  3352   0.174E-01    0.211E-02
RMM:  10    -0.433191638922E+02   -0.80070E-04   -0.28412E-04  3300   0.882E-02    0.733E-03
RMM:  11    -0.433191518826E+02    0.12010E-04   -0.20016E-05  2151   0.238E-02    0.131E-03
RMM:  12    -0.433191520393E+02   -0.15672E-06   -0.34579E-06  2002   0.106E-02
   1 F= -.43319152E+02 E0= -.43319152E+02  d E =-.433192E+02
 curvature:   0.00 expect dE= 0.000E+00 dE for cont linesearch  0.000E+00
 trial: gam= 0.00000 g(F)=  0.112E-43 g(S)=  0.000E+00 ort = 0.000E+00 (trialstep = 0.100E+01)
 search vector abs. value=  0.100E-09
 reached required accuracy - stopping structural energy minimisation
 running on    4 total cores
 distrk:  each k-point on    4 cores,    1 groups
 distr:  one band on    2 cores,    2 groups
 using from now: INCAR     
 vasp.5.4.1 05Feb16 (build Mar 17 2017 08:48:41) complex                        
  
 POSCAR found type information on POSCAR  Si
 POSCAR found :  1 types and       8 ions
 scaLAPACK will be used
 LDA part: xc-table for Pade appr. of Perdew
 POSCAR, INCAR and KPOINTS ok, starting setup
 FFT: planning ...
 WAVECAR not read
 entering main loop
       N       E                     dE             d eps       ncg     rms          rms(c)
DAV:   1     0.489386517488E+02    0.48939E+02   -0.89702E+03  3300   0.792E+02
DAV:   2    -0.399451373819E+02   -0.88884E+02   -0.83634E+02  4454   0.135E+02
DAV:   3    -0.437890643464E+02   -0.38439E+01   -0.37999E+01  4274   0.278E+01
DAV:   4    -0.438584721824E+02   -0.69408E-01   -0.69244E-01  4138   0.464E+00
DAV:   5    -0.438603313044E+02   -0.18591E-02   -0.18584E-02  4246   0.637E-01    0.572E+00
RMM:   6    -0.434566097782E+02    0.40372E+00   -0.21233E-01  3300   0.186E+00    0.344E+00
RMM:   7    -0.432638560242E+02    0.19275E+00   -0.48914E-01  3300   0.291E+00    0.278E-01
RMM:   8    -0.432691632700E+02   -0.53072E-02   -0.15368E-02  3378   0.565E-01    0.463E-02
RMM:   9    -0.432696042622E+02   -0.44099E-03   -0.12101E-03  3347   0.174E-01    0.209E-02
RMM:  10    -0.432696843099E+02   -0.80048E-04   -0.28894E-04  3300   0.888E-02    0.767E-03
RMM:  11    -0.432696715354E+02    0.12774E-04   -0.21143E-05  2165   0.243E-02    0.131E-03
RMM:  12    -0.432696717388E+02   -0.20340E-06   -0.34334E-06  2011   0.106E-02
   1 F= -.43269672E+02 E0= -.43269672E+02  d E =-.432697E+02
 curvature:   0.00 expect dE= 0.000E+00 dE for cont linesearch  0.000E+00
 trial: gam= 0.00000 g(F)=  0.983E-44 g(S)=  0.000E+00 ort = 0.000E+00 (trialstep = 0.100E+01)
 search vector abs. value=  0.100E-09
 reached required accuracy - stopping structural energy minimisation
 running on    4 total cores
 distrk:  each k-point on    4 cores,    1 groups
 distr:  one band on    2 cores,    2 groups
 using from now: INCAR     
 vasp.5.4.1 05Feb16 (build Mar 17 2017 08:48:41) complex                        
  
 POSCAR found type information on POSCAR  Si
 POSCAR found :  1 types and       8 ions
 scaLAPACK will be used
 LDA part: xc-table for Pade appr. of Perdew
 POSCAR, INCAR and KPOINTS ok, starting setup
 FFT: planning ...
 WAVECAR not read
 entering main loop
       N       E                     dE             d eps       ncg     rms          rms(c)
DAV:   1     0.492149650657E+02    0.49215E+02   -0.89773E+03  3300   0.793E+02
DAV:   2    -0.396361979047E+02   -0.88851E+02   -0.83274E+02  4424   0.135E+02
DAV:   3    -0.437031788162E+02   -0.40670E+01   -0.40134E+01  4268   0.283E+01
DAV:   4    -0.437776212045E+02   -0.74442E-01   -0.74289E-01  4168   0.474E+00
DAV:   5    -0.437794639815E+02   -0.18428E-02   -0.18420E-02  4232   0.651E-01    0.567E+00
RMM:   6    -0.433894464168E+02    0.39002E+00   -0.20361E-01  3300   0.182E+00    0.341E+00
RMM:   7    -0.432017569679E+02    0.18769E+00   -0.47353E-01  3300   0.287E+00    0.274E-01
RMM:   8    -0.432070527370E+02   -0.52958E-02   -0.15031E-02  3377   0.561E-01    0.463E-02
RMM:   9    -0.432074967092E+02   -0.44397E-03   -0.12140E-03  3347   0.175E-01    0.208E-02
RMM:  10    -0.432075764717E+02   -0.79762E-04   -0.29056E-04  3300   0.891E-02    0.777E-03
RMM:  11    -0.432075635236E+02    0.12948E-04   -0.21621E-05  2183   0.246E-02    0.133E-03
RMM:  12    -0.432075637622E+02   -0.23865E-06   -0.34534E-06  2016   0.107E-02
   1 F= -.43207564E+02 E0= -.43207564E+02  d E =-.432076E+02
 curvature:   0.00 expect dE= 0.000E+00 dE for cont linesearch  0.000E+00
 trial: gam= 0.00000 g(F)=  0.687E-44 g(S)=  0.000E+00 ort = 0.000E+00 (trialstep = 0.100E+01)
 search vector abs. value=  0.100E-09
 reached required accuracy - stopping structural energy minimisation
 running on    4 total cores
 distrk:  each k-point on    4 cores,    1 groups
 distr:  one band on    2 cores,    2 groups
 using from now: INCAR     
 vasp.5.4.1 05Feb16 (build Mar 17 2017 08:48:41) complex                        
  
 POSCAR found type information on POSCAR  Si
 POSCAR found :  1 types and       8 ions
 scaLAPACK will be used
 LDA part: xc-table for Pade appr. of Perdew
 POSCAR, INCAR and KPOINTS ok, starting setup
 FFT: planning ...
 WAVECAR not read
 entering main loop
       N       E                     dE             d eps       ncg     rms          rms(c)
DAV:   1     0.501229714467E+02    0.50123E+02   -0.90289E+03  3300   0.793E+02
DAV:   2    -0.395799520931E+02   -0.89703E+02   -0.84024E+02  4446   0.135E+02
DAV:   3    -0.436098977761E+02   -0.40299E+01   -0.39726E+01  4304   0.282E+01
DAV:   4    -0.436849367522E+02   -0.75039E-01   -0.74870E-01  4138   0.474E+00
DAV:   5    -0.436870877164E+02   -0.21510E-02   -0.21500E-02  4230   0.678E-01    0.563E+00
RMM:   6    -0.433102117047E+02    0.37688E+00   -0.19564E-01  3300   0.178E+00    0.339E+00
RMM:   7    -0.431274144943E+02    0.18280E+00   -0.45882E-01  3300   0.283E+00    0.270E-01
RMM:   8    -0.431326881012E+02   -0.52736E-02   -0.14653E-02  3373   0.556E-01    0.466E-02
RMM:   9    -0.431331375022E+02   -0.44940E-03   -0.12191E-03  3335   0.175E-01    0.206E-02
RMM:  10    -0.431332174857E+02   -0.79983E-04   -0.29969E-04  3300   0.899E-02    0.810E-03
RMM:  11    -0.431332039416E+02    0.13544E-04   -0.23395E-05  2203   0.252E-02    0.136E-03
RMM:  12    -0.431332042512E+02   -0.30956E-06   -0.35763E-06  2024   0.109E-02
   1 F= -.43133204E+02 E0= -.43133204E+02  d E =-.431332E+02
 curvature:   0.00 expect dE= 0.000E+00 dE for cont linesearch  0.000E+00
 trial: gam= 0.00000 g(F)=  0.834E-44 g(S)=  0.000E+00 ort = 0.000E+00 (trialstep = 0.100E+01)
 search vector abs. value=  0.100E-09
 reached required accuracy - stopping structural energy minimisation
00000000
     0.0000000000     5.4669449631     0.0000000000
     0.0000000000     0.0000000000     5.4669454405
Lattice Parameter:
    a         b         c      alpha   beta    gamma
5.575212  5.466945  5.466945  90.000  90.000  90.000
Volume : 166.629100858

mpirun -np 4 vasp_std
/home/opensoft/liaomingqing/Elastic3rd/VASP/Si/Elastic3rd/Si/Mode1/Strain2.0
Energy:
       eV             Hartree            kJ/mol            kcal/mol
-43.3550710000  -1.5932685107  -4183.1274828490  -999.7915267541
[-4.33550710e+01 -1.59326851e+00 -4.18312748e+03 -9.99791527e+02]
Energy:
       eV             Hartree            kJ/mol            kcal/mol
-43.3550710000  -1.5932685107  -4183.1274828490  -999.7915267541
End of Strain 2.0 in Mode 1

Start calculating Strain 3.0 in Mode 1
BaseVec:
     5.6285648257     0.0000000000     0.0000000000
     0.0000000000     5.4669449631     0.0000000000
     0.0000000000     0.0000000000     5.4669454405
Lattice Parameter:
    a         b         c      alpha   beta    gamma
5.628565  5.466945  5.466945  90.000  90.000  90.000
Volume : 168.22367404

mpirun -np 4 vasp_std
/home/opensoft/liaomingqing/Elastic3rd/VASP/Si/Elastic3rd/Si/Mode1/Strain3.0
Energy:
       eV             Hartree            kJ/mol            kcal/mol
-43.3191520000  -1.5919485126  -4179.6618269848  -998.9632150706
[-4.33191520e+01 -1.59194851e+00 -4.17966183e+03 -9.98963215e+02]
Energy:
       eV             Hartree            kJ/mol            kcal/mol
-43.3191520000  -1.5919485126  -4179.6618269848  -998.9632150706
End of Strain 3.0 in Mode 1

Start calculating Strain 4.0 in Mode 1
BaseVec:
     5.6814163591     0.0000000000     0.0000000000
     0.0000000000     5.4669449631     0.0000000000
     0.0000000000     0.0000000000     5.4669454405
Lattice Parameter:
    a         b         c      alpha   beta    gamma
5.681416  5.466945  5.466945  90.000  90.000  90.000
Volume : 169.803273709

mpirun -np 4 vasp_std
/home/opensoft/liaomingqing/Elastic3rd/VASP/Si/Elastic3rd/Si/Mode1/Strain4.0
Energy:
       eV             Hartree            kJ/mol            kcal/mol
-43.2696720000  -1.5901301572  -4174.8877338262  -997.8221793485
[-4.32696720e+01 -1.59013016e+00 -4.17488773e+03 -9.97822179e+02]
Energy:
       eV             Hartree            kJ/mol            kcal/mol
-43.2696720000  -1.5901301572  -4174.8877338262  -997.8221793485
End of Strain 4.0 in Mode 1

Start calculating Strain 5.0 in Mode 1
BaseVec:
     5.7337807505     0.0000000000     0.0000000000
     0.0000000000     5.4669449631     0.0000000000
     0.0000000000     0.0000000000     5.4669454405
Lattice Parameter:
    a         b         c      alpha   beta    gamma
5.733781  5.466945  5.466945  90.000  90.000  90.000
Volume : 171.368313924

mpirun -np 4 vasp_std
/home/opensoft/liaomingqing/Elastic3rd/VASP/Si/Elastic3rd/Si/Mode1/Strain5.0
Energy:
       eV             Hartree            kJ/mol            kcal/mol
-43.2075640000  -1.5878477317  -4168.8952241679  -996.3899350756
[-4.32075640e+01 -1.58784773e+00 -4.16889522e+03 -9.96389935e+02]
Energy:
       eV             Hartree            kJ/mol            kcal/mol
-43.2075640000  -1.5878477317  -4168.8952241679  -996.3899350756
End of Strain 5.0 in Mode 1

Start calculating Strain 6.0 in Mode 1
BaseVec:
     5.7856712267     0.0000000000     0.0000000000
     0.0000000000     5.4669449631     0.0000000000
     0.0000000000     0.0000000000     5.4669454405
Lattice Parameter:
    a         b         c      alpha   beta    gamma
5.785671  5.466945  5.466945  90.000  90.000  90.000
Volume : 172.919190005

mpirun -np 4 vasp_std
/home/opensoft/liaomingqing/Elastic3rd/VASP/Si/Elastic3rd/Si/Mode1/Strain6.0
Energy:
       eV             Hartree            kJ/mol            kcal/mol
-43.1332040000  -1.5851150538  -4161.7205764865  -994.6751530163
[-4.31332040e+01 -1.58511505e+00 -4.16172058e+03 -9.94675153e+02]
Energy:
       eV             Hartree            kJ/mol            kcal/mol
-43.1332040000  -1.5851150538  -4161.7205764865  -994.6751530163
End of Strain 6.0 in Mode 1

End of Mode 1

---------------------------- running on    4 total cores
 distrk:  each k-point on    4 cores,    1 groups
 distr:  one band on    2 cores,    2 groups
 using from now: INCAR     
 vasp.5.4.1 05Feb16 (build Mar 17 2017 08:48:41) complex                        
  
 POSCAR found type information on POSCAR  Si
 POSCAR found :  1 types and       8 ions
 scaLAPACK will be used
 LDA part: xc-table for Pade appr. of Perdew
 POSCAR, INCAR and KPOINTS ok, starting setup
 FFT: planning ...
 WAVECAR not read
 entering main loop
       N       E                     dE             d eps       ncg     rms          rms(c)
DAV:   1     0.538125807199E+02    0.53813E+02   -0.92990E+03  3300   0.809E+02
DAV:   2    -0.392181454015E+02   -0.93031E+02   -0.87435E+02  4482   0.142E+02
DAV:   3    -0.433509247015E+02   -0.41328E+01   -0.40751E+01  4234   0.289E+01
DAV:   4    -0.434210063259E+02   -0.70082E-01   -0.69914E-01  4126   0.465E+00
DAV:   5    -0.434227856547E+02   -0.17793E-02   -0.17785E-02  4160   0.591E-01    0.655E+00
RMM:   6    -0.427195625234E+02    0.70322E+00   -0.40100E-01  3300   0.259E+00    0.384E+00
RMM:   7    -0.424203524505E+02    0.29921E+00   -0.79087E-01  3300   0.370E+00    0.342E-01
RMM:   8    -0.424253790122E+02   -0.50266E-02   -0.22250E-02  3351   0.664E-01    0.460E-02
RMM:   9    -0.424257349436E+02   -0.35593E-03   -0.14614E-03  3438   0.180E-01    0.247E-02
RMM:  10    -0.424258027406E+02   -0.67797E-04   -0.21189E-04  3300   0.790E-02    0.751E-03
RMM:  11    -0.424257980932E+02    0.46474E-05   -0.12805E-05  2110   0.192E-02
   1 F= -.42425798E+02 E0= -.42425798E+02  d E =-.424258E+02
 curvature:   0.00 expect dE= 0.000E+00 dE for cont linesearch  0.000E+00
 trial: gam= 0.00000 g(F)=  0.198E-43 g(S)=  0.000E+00 ort = 0.000E+00 (trialstep = 0.100E+01)
 search vector abs. value=  0.100E-09
 reached required accuracy - stopping structural energy minimisation
 running on    4 total cores
 distrk:  each k-point on    4 cores,    1 groups
 distr:  one band on    2 cores,    2 groups
 using from now: INCAR     
 vasp.5.4.1 05Feb16 (build Mar 17 2017 08:48:41) complex                        
  
 POSCAR found type information on POSCAR  Si
 POSCAR found :  1 types and       8 ions
 scaLAPACK will be used
 LDA part: xc-table for Pade appr. of Perdew
 POSCAR, INCAR and KPOINTS ok, starting setup
 WARNING: small aliasing (wrap around) errors must be expected
 FFT: planning ...
 WAVECAR not read
 entering main loop
       N       E                     dE             d eps       ncg     rms          rms(c)
DAV:   1     0.536813004009E+02    0.53681E+02   -0.92842E+03  3300   0.806E+02
DAV:   2    -0.395799449567E+02   -0.93261E+02   -0.87594E+02  4544   0.142E+02
DAV:   3    -0.436035307237E+02   -0.40236E+01   -0.39673E+01  4280   0.287E+01
DAV:   4    -0.436720142894E+02   -0.68484E-01   -0.68352E-01  4120   0.464E+00
DAV:   5    -0.436737592802E+02   -0.17450E-02   -0.17444E-02  4244   0.595E-01    0.644E+00
RMM:   6    -0.430166009002E+02    0.65716E+00   -0.37144E-01  3300   0.248E+00    0.379E+00
RMM:   7    -0.427332715199E+02    0.28333E+00   -0.74646E-01  3300   0.359E+00    0.334E-01
RMM:   8    -0.427384061135E+02   -0.51346E-02   -0.20989E-02  3350   0.649E-01    0.459E-02
RMM:   9    -0.427387750245E+02   -0.36891E-03   -0.14232E-03  3421   0.179E-01    0.242E-02
RMM:  10    -0.427388462392E+02   -0.71215E-04   -0.22491E-04  3302   0.807E-02    0.710E-03
RMM:  11    -0.427388407803E+02    0.54589E-05   -0.13631E-05  2110   0.198E-02
   1 F= -.42738841E+02 E0= -.42738841E+02  d E =-.427388E+02
 curvature:   0.00 expect dE= 0.000E+00 dE for cont linesearch  0.000E+00
 trial: gam= 0.00000 g(F)=  0.157E-43 g(S)=  0.000E+00 ort = 0.000E+00 (trialstep = 0.100E+01)
 search vector abs. value=  0.100E-09
 reached required accuracy - stopping structural energy minimisation
 running on    4 total cores
 distrk:  each k-point on    4 cores,    1 groups
 distr:  one band on    2 cores,    2 groups
 using from now: INCAR     
 vasp.5.4.1 05Feb16 (build Mar 17 2017 08:48:41) complex                        
  
 POSCAR found type information on POSCAR  Si
 POSCAR found :  1 types and       8 ions
 scaLAPACK will be used
 LDA part: xc-table for Pade appr. of Perdew
 POSCAR, INCAR and KPOINTS ok, starting setup
 FFT: planning ...
 WAVECAR not read
 entering main loop
       N       E                     dE             d eps       ncg     rms          rms(c)
DAV:   1     0.524299418163E+02    0.52430E+02   -0.92528E+03  3300   0.805E+02
DAV:   2    -0.398377303307E+02   -0.92268E+02   -0.86622E+02  4534   0.140E+02
DAV:   3    -0.437900484816E+02   -0.39523E+01   -0.38973E+01  4226   0.285E+01
DAV:   4    -0.438574180007E+02   -0.67370E-01   -0.67213E-01  4126   0.462E+00
DAV:   5    -0.438591820707E+02   -0.17641E-02   -0.17633E-02  4192   0.606E-01    0.633E+00
RMM:   6    -0.432454804229E+02    0.61370E+00   -0.34392E-01  3300   0.238E+00    0.374E+00
RMM:   7    -0.429773172474E+02    0.26816E+00   -0.70513E-01  3300   0.349E+00    0.325E-01
RMM:   8    -0.429824882236E+02   -0.51710E-02   -0.20064E-02  3358   0.636E-01    0.459E-02
RMM:   9    -0.429828650784E+02   -0.37685E-03   -0.13539E-03  3404   0.177E-01    0.236E-02
RMM:  10    -0.429829384382E+02   -0.73360E-04   -0.23518E-04  3300   0.819E-02    0.641E-03
RMM:  11    -0.429829318838E+02    0.65545E-05   -0.14231E-05  2113   0.202E-02
   1 F= -.42982932E+02 E0= -.42982932E+02  d E =-.429829E+02
 curvature:   0.00 expect dE= 0.000E+00 dE for cont linesearch  0.000E+00
 trial: gam= 0.00000 g(F)=  0.179E-43 g(S)=  0.000E+00 ort = 0.000E+00 (trialstep = 0.100E+01)
 search vector abs. value=  0.100E-09
 reached required accuracy - stopping structural energy minimisation
 running on    4 total cores
 distrk:  each k-point on    4 cores,    1 groups
 distr:  one band on    2 cores,    2 groups
 using from now: INCAR     
 vasp.5.4.1 05Feb16 (build Mar 17 2017 08:48:41) complex                        
  
 POSCAR found type information on POSCAR  Si
 POSCAR found :  1 types and       8 ions
 scaLAPACK will be used
 LDA part: xc-table for Pade appr. of Perdew
 POSCAR, INCAR and KPOINTS ok, starting setup
 FFT: planning ...
 WAVECAR not read
 entering main loop
       N       E                     dE             d eps       ncg     rms          rms(c)
DAV:   1     0.509337839893E+02    0.50934E+02   -0.92286E+03  3300   0.805E+02
DAV:   2    -0.399802925520E+02   -0.90914E+02   -0.85257E+02  4578   0.138E+02
DAV:   3    -0.439181906828E+02   -0.39379E+01   -0.38928E+01  4226   0.283E+01
DAV:   4    -0.439834295910E+02   -0.65239E-01   -0.65109E-01  4126   0.458E+00
DAV:   5    -0.439850086257E+02   -0.15790E-02   -0.15783E-02  4214   0.586E-01    0.622E+00
RMM:   6    -0.434121797382E+02    0.57283E+00   -0.31849E-01  3300   0.229E+00    0.368E+00
RMM:   7    -0.431584345082E+02    0.25375E+00   -0.66598E-01  3300   0.339E+00    0.317E-01
RMM:   8    -0.431636503678E+02   -0.52159E-02   -0.19266E-02  3358   0.624E-01    0.458E-02
RMM:   9    -0.431640396411E+02   -0.38927E-03   -0.13439E-03  3398   0.177E-01    0.232E-02
RMM:  10    -0.431641144723E+02   -0.74831E-04   -0.24276E-04  3300   0.831E-02    0.635E-03
RMM:  11    -0.431641073156E+02    0.71567E-05   -0.14776E-05  2111   0.207E-02
   1 F= -.43164107E+02 E0= -.43164107E+02  d E =-.431641E+02
 curvature:   0.00 expect dE= 0.000E+00 dE for cont linesearch  0.000E+00
 trial: gam= 0.00000 g(F)=  0.827E-44 g(S)=  0.000E+00 ort = 0.000E+00 (trialstep = 0.100E+01)
 search vector abs. value=  0.100E-09
 reached required accuracy - stopping structural energy minimisation
 running on    4 total cores
 distrk:  each k-point on    4 cores,    1 groups
 distr:  one band on    2 cores,    2 groups
 using from now: INCAR     
 vasp.5.4.1 05Feb16 (build Mar 17 2017 08:48:41) complex                        
  
 POSCAR found type information on POSCAR  Si
 POSCAR found :  1 types and       8 ions
 scaLAPACK will be used
 LDA part: xc-table for Pade appr. of Perdew
 POSCAR, INCAR and KPOINTS ok, starting setup
 FFT: planning ...
 WAVECAR not read
 entering main loop
       N       E                     dE             d eps       ncg     rms          rms(c)
DAV:   1     0.512276522814E+02    0.51228E+02   -0.91592E+03  3300   0.802E+02
DAV:   2    -0.399496614147E+02   -0.91177E+02   -0.85942E+02  4498   0.138E+02
DAV:   3    -0.439834111728E+02   -0.40337E+01   -0.39855E+01  4300   0.283E+01
DAV:   4    -0.440546278056E+02   -0.71217E-01   -0.71074E-01  4076   0.470E+00
DAV:   5    -0.440566552582E+02   -0.20275E-02   -0.20268E-02  4270   0.634E-01    0.612E+00
RMM:   6    -0.435222657414E+02    0.53439E+00   -0.29427E-01  3300   0.220E+00    0.363E+00
RMM:   7    -0.432821827345E+02    0.24008E+00   -0.62725E-01  3300   0.329E+00    0.309E-01
RMM:   8    -0.432874339362E+02   -0.52512E-02   -0.18424E-02  3364   0.611E-01    0.458E-02
RMM:   9    -0.432878332307E+02   -0.39929E-03   -0.12961E-03  3389   0.176E-01    0.227E-02
RMM:  10    -0.432879097173E+02   -0.76487E-04   -0.25199E-04  3300   0.843E-02    0.626E-03
RMM:  11    -0.432879013862E+02    0.83311E-05   -0.15613E-05  2115   0.213E-02
   1 F= -.43287901E+02 E0= -.43287901E+02  d E =-.432879E+02
 curvature:   0.00 expect dE= 0.000E+00 dE for cont linesearch  0.000E+00
 trial: gam= 0.00000 g(F)=  0.452E-43 g(S)=  0.000E+00 ort = 0.000E+00 (trialstep = 0.100E+01)
 search vector abs. value=  0.100E-09
 reached required accuracy - stopping structural energy minimisation
------------------------------
Start calculating Mode 2
/home/opensoft/liaomingqing/Elastic3rd/VASP/Si/Elastic3rd
Start calculating Strain -6.0 in Mode 2
BaseVec:
     5.1284494105     0.0000000000     0.0000000000
     0.0000000000     5.1284489626     0.0000000000
     0.0000000000     0.0000000000     5.4669454405
Lattice Parameter:
    a         b         c      alpha   beta    gamma
5.128449  5.128449  5.466945  90.000  90.000  90.000
Volume : 143.786083152

mpirun -np 4 vasp_std
/home/opensoft/liaomingqing/Elastic3rd/VASP/Si/Elastic3rd/Si/Mode2/Strain-6.0
Energy:
       eV             Hartree            kJ/mol            kcal/mol
-42.4257980000  -1.5591183784  -4093.4662889977  -978.3619857567
[-4.24257980e+01 -1.55911838e+00 -4.09346629e+03 -9.78361986e+02]
Energy:
       eV             Hartree            kJ/mol            kcal/mol
-42.4257980000  -1.5591183784  -4093.4662889977  -978.3619857567
End of Strain -6.0 in Mode 2

Start calculating Strain -5.0 in Mode 2
BaseVec:
     5.1863998308     0.0000000000     0.0000000000
     0.0000000000     5.1863993779     0.0000000000
     0.0000000000     0.0000000000     5.4669454405
Lattice Parameter:
    a         b         c      alpha   beta    gamma
5.186400  5.186399  5.466945  90.000  90.000  90.000
Volume : 147.053948678

mpirun -np 4 vasp_std
/home/opensoft/liaomingqing/Elastic3rd/VASP/Si/Elastic3rd/Si/Mode2/Strain-5.0
Energy:
       eV             Hartree            kJ/mol            kcal/mol
-42.7388410000  -1.5706224896  -4123.6703400212  -985.5809276634
[-4.27388410e+01 -1.57062249e+00 -4.12367034e+03 -9.85580928e+02]
Energy:
       eV             Hartree            kJ/mol            kcal/mol
-42.7388410000  -1.5706224896  -4123.6703400212  -985.5809276634
End of Strain -5.0 in Mode 2

Start calculating Strain -4.0 in Mode 2
BaseVec:
     5.2437098560     0.0000000000     0.0000000000
     0.0000000000     5.2437093981     0.0000000000
     0.0000000000     0.0000000000     5.4669454405
Lattice Parameter:
    a         b         c      alpha   beta    gamma
5.243710  5.243709  5.466945  90.000  90.000  90.000
Volume : 150.321814204

mpirun -np 4 vasp_std
/home/opensoft/liaomingqing/Elastic3rd/VASP/Si/Elastic3rd/Si/Mode2/Strain-4.0
Energy:
       eV             Hartree            kJ/mol            kcal/mol
-42.9829320000  -1.5795926629  -4147.2215359221  -991.2097989333
[-4.29829320e+01 -1.57959266e+00 -4.14722154e+03 -9.91209799e+02]
Energy:
       eV             Hartree            kJ/mol            kcal/mol
-42.9829320000  -1.5795926629  -4147.2215359221  -991.2097989333
End of Strain -4.0 in Mode 2

Start calculating Strain -3.0 in Mode 2
BaseVec:
     5.3004002587     0.0000000000     0.0000000000
     0.0000000000     5.3003997959     0.0000000000
     0.0000000000     0.0000000000     5.4669454405
Lattice Parameter:
    a         b         c      alpha   beta    gamma
5.300400  5.300400  5.466945  90.000  90.000  90.000
Volume : 153.58967973

mpirun -np 4 vasp_std
/home/opensoft/liaomingqing/Elastic3rd/VASP/Si/Elastic3rd/Si/Mode2/Strain-3.0
Energy:
       eV             Hartree            kJ/mol            kcal/mol
-43.1641070000  -1.5862507174  -4164.7022620338  -995.3877930106
[-4.31641070e+01 -1.58625072e+00 -4.16470226e+03 -9.95387793e+02]
Energy:
       eV             Hartree            kJ/mol            kcal/mol
-43.1641070000  -1.5862507174  -4164.7022620338  -995.3877930106
End of Strain -3.0 in Mode 2

Start calculating Strain -2.0 in Mode 2
BaseVec:
     5.3564907124     0.0000000000     0.0000000000
     0.0000000000     5.3564902446     0.0000000000
     0.0000000000     0.0000000000     5.4669454405
Lattice Parameter:
    a         b         c      alpha   beta    gamma
5.356491  5.356490  5.466945  90.000  90.000  90.000
Volume : 156.857545256

mpirun -np 4 vasp_std
/home/opensoft/liaomingqing/Elastic3rd/VASP/Si/Elastic3rd/Si/Mode2/Strain-2.0
Energy:
       eV             Hartree            kJ/mol            kcal/mol
-43.2879010000  -1.5908000602  -4176.6465645495  -998.2425500069
[-4.32879010e+01 -1.59080006e+00 -4.17664656e+03 -9.98242550 running on    4 total cores
 distrk:  each k-point on    4 cores,    1 groups
 distr:  one band on    2 cores,    2 groups
 using from now: INCAR     
 vasp.5.4.1 05Feb16 (build Mar 17 2017 08:48:41) complex                        
  
 POSCAR found type information on POSCAR  Si
 POSCAR found :  1 types and       8 ions
 scaLAPACK will be used
 LDA part: xc-table for Pade appr. of Perdew
 POSCAR, INCAR and KPOINTS ok, starting setup
 FFT: planning ...
 WAVECAR not read
 entering main loop
       N       E                     dE             d eps       ncg     rms          rms(c)
DAV:   1     0.509079010307E+02    0.50908E+02   -0.90991E+03  3300   0.799E+02
DAV:   2    -0.400536836914E+02   -0.90962E+02   -0.85602E+02  4480   0.138E+02
DAV:   3    -0.440092416900E+02   -0.39556E+01   -0.39116E+01  4270   0.282E+01
DAV:   4    -0.440772477410E+02   -0.68006E-01   -0.67865E-01  4056   0.468E+00
DAV:   5    -0.440791403157E+02   -0.18926E-02   -0.18918E-02  4256   0.644E-01    0.601E+00
RMM:   6    -0.435808713717E+02    0.49827E+00   -0.27159E-01  3300   0.211E+00    0.358E+00
RMM:   7    -0.433537176218E+02    0.22715E+00   -0.59008E-01  3300   0.319E+00    0.301E-01
RMM:   8    -0.433589938052E+02   -0.52762E-02   -0.17584E-02  3367   0.598E-01    0.460E-02
RMM:   9    -0.433594037065E+02   -0.40990E-03   -0.12399E-03  3365   0.174E-01    0.221E-02
RMM:  10    -0.433594821782E+02   -0.78472E-04   -0.26534E-04  3300   0.857E-02    0.651E-03
RMM:  11    -0.433594721507E+02    0.10028E-04   -0.17341E-05  2123   0.222E-02    0.137E-03
RMM:  12    -0.433594722287E+02   -0.78042E-07   -0.32274E-06  1945   0.101E-02
   1 F= -.43359472E+02 E0= -.43359472E+02  d E =-.433595E+02
 curvature:   0.00 expect dE= 0.000E+00 dE for cont linesearch  0.000E+00
 trial: gam= 0.00000 g(F)=  0.118E-43 g(S)=  0.000E+00 ort = 0.000E+00 (trialstep = 0.100E+01)
 search vector abs. value=  0.100E-09
 reached required accuracy - stopping structural energy minimisation
 running on    4 total cores
 distrk:  each k-point on    4 cores,    1 groups
 distr:  one band on    2 cores,    2 groups
 using from now: INCAR     
 vasp.5.4.1 05Feb16 (build Mar 17 2017 08:48:41) complex                        
  
 POSCAR found type information on POSCAR  Si
 POSCAR found :  1 types and       8 ions
 scaLAPACK will be used
 LDA part: xc-table for Pade appr. of Perdew
 POSCAR, INCAR and KPOINTS ok, starting setup
 WARNING: small aliasing (wrap around) errors must be expected
 FFT: planning ...
 WAVECAR not read
 entering main loop
       N       E                     dE             d eps       ncg     rms          rms(c)
DAV:   1     0.501203632582E+02    0.50120E+02   -0.90419E+03  3300   0.796E+02
DAV:   2    -0.397843880218E+02   -0.89905E+02   -0.84528E+02  4380   0.136E+02
DAV:   3    -0.439197156676E+02   -0.41353E+01   -0.40817E+01  4330   0.283E+01
DAV:   4    -0.439927146740E+02   -0.72999E-01   -0.72793E-01  4090   0.463E+00
DAV:   5    -0.439947718473E+02   -0.20572E-02   -0.20564E-02  4246   0.655E-01    0.582E+00
RMM:   6    -0.435621614644E+02    0.43261E+00   -0.23049E-01  3300   0.194E+00    0.349E+00
RMM:   7    -0.433587339834E+02    0.20343E+00   -0.52094E-01  3300   0.300E+00    0.285E-01
RMM:   8    -0.433640698630E+02   -0.53359E-02   -0.16129E-02  3370   0.575E-01    0.460E-02
RMM:   9    -0.433645017593E+02   -0.43190E-03   -0.12063E-03  3349   0.174E-01    0.213E-02
RMM:  10    -0.433645820469E+02   -0.80288E-04   -0.28151E-04  3300   0.878E-02    0.725E-03
RMM:  11    -0.433645701002E+02    0.11947E-04   -0.19608E-05  2153   0.235E-02    0.130E-03
RMM:  12    -0.433645702563E+02   -0.15614E-06   -0.33585E-06  1987   0.104E-02
   1 F= -.43364570E+02 E0= -.43364570E+02  d E =-.433646E+02
 curvature:   0.00 expect dE= 0.000E+00 dE for cont linesearch  0.000E+00
 trial: gam= 0.00000 g(F)=  0.418E-43 g(S)=  0.000E+00 ort = 0.000E+00 (trialstep = 0.100E+01)
 search vector abs. value=  0.100E-09
 reached required accuracy - stopping structural energy minimisation
 running on    4 total cores
 distrk:  each k-point on    4 cores,    1 groups
 distr:  one band on    2 cores,    2 groups
 using from now: INCAR     
 vasp.5.4.1 05Feb16 (build Mar 17 2017 08:48:41) complex                        
  
 POSCAR found type information on POSCAR  Si
 POSCAR found :  1 types and       8 ions
 scaLAPACK will be used
 LDA part: xc-table for Pade appr. of Perdew
 POSCAR, INCAR and KPOINTS ok, starting setup
 FFT: planning ...
 WAVECAR not read
 entering main loop
       N       E                     dE             d eps       ncg     rms          rms(c)
DAV:   1     0.489259014239E+02    0.48926E+02   -0.90095E+03  3300   0.795E+02
DAV:   2    -0.396937652692E+02   -0.88620E+02   -0.82944E+02  4434   0.135E+02
DAV:   3    -0.438187398084E+02   -0.41250E+01   -0.40699E+01  4278   0.283E+01
DAV:   4    -0.438939691639E+02   -0.75229E-01   -0.75083E-01  4120   0.473E+00
DAV:   5    -0.438960195610E+02   -0.20504E-02   -0.20494E-02  4214   0.666E-01    0.572E+00
RMM:   6    -0.434931315688E+02    0.40289E+00   -0.21218E-01  3300   0.186E+00    0.344E+00
RMM:   7    -0.433006250477E+02    0.19251E+00   -0.48933E-01  3300   0.291E+00    0.277E-01
RMM:   8    -0.433059808402E+02   -0.53558E-02   -0.15439E-02  3375   0.565E-01    0.461E-02
RMM:   9    -0.433064240176E+02   -0.44318E-03   -0.12030E-03  3339   0.174E-01    0.208E-02
RMM:  10    -0.433065049932E+02   -0.80976E-04   -0.29159E-04  3300   0.890E-02    0.778E-03
RMM:  11    -0.433064919218E+02    0.13071E-04   -0.21330E-05  2166   0.243E-02    0.129E-03
RMM:  12    -0.433064921115E+02   -0.18963E-06   -0.34372E-06  2008   0.106E-02
   1 F= -.43306492E+02 E0= -.43306492E+02  d E =-.433065E+02
 curvature:   0.00 expect dE= 0.000E+00 dE for cont linesearch  0.000E+00
 trial: gam= 0.00000 g(F)=  0.284E-44 g(S)=  0.000E+00 ort = 0.000E+00 (trialstep = 0.100E+01)
 search vector abs. value=  0.100E-09
 reached required accuracy - stopping structural energy minimisation
 running on    4 total cores
 distrk:  each k-point on    4 cores,    1 groups
 distr:  one band on    2 cores,    2 groups
 using from now: INCAR     
 vasp.5.4.1 05Feb16 (build Mar 17 2017 08:48:41) complex                        
  
 POSCAR found type information on POSCAR  Si
 POSCAR found :  1 types and       8 ions
 scaLAPACK will be used
 LDA part: xc-table for Pade appr. of Perdew
 POSCAR, INCAR and KPOINTS ok, starting setup
 FFT: planning ...
 WAVECAR not read
 entering main loop
       N       E                     dE             d eps       ncg     rms          rms(c)
DAV:   1     0.508527868781E+02    0.50853E+02   -0.89976E+03  3300   0.793E+02
DAV:   2    -0.395221349147E+02   -0.90375E+02   -0.84864E+02  4438   0.135E+02
DAV:   3    -0.436830173317E+02   -0.41609E+01   -0.41056E+01  4276   0.284E+01
DAV:   4    -0.437624004138E+02   -0.79383E-01   -0.79208E-01  4126   0.486E+00
DAV:   5    -0.437645087040E+02   -0.21083E-02   -0.21076E-02  4244   0.680E-01    0.563E+00
RMM:   6    -0.433894376843E+02    0.37507E+00   -0.19527E-01  3300   0.178E+00    0.339E+00
RMM:   7    -0.432072566583E+02    0.18218E+00   -0.45884E-01  3300   0.283E+00    0.270E-01
RMM:   8    -0.432126249712E+02   -0.53683E-02   -0.14753E-02  3381   0.554E-01    0.465E-02
RMM:   9    -0.432130820025E+02   -0.45703E-03   -0.11982E-03  3333   0.174E-01    0.203E-02
RMM:  10    -0.432131632137E+02   -0.81211E-04   -0.30022E-04  3300   0.900E-02    0.847E-03
RMM:  11    -0.432131487508E+02    0.14463E-04   -0.23102E-05  2189   0.251E-02    0.128E-03
RMM:  12    -0.432131489816E+02   -0.23082E-06   -0.34502E-06  2021   0.107E-02
   1 F= -.43213149E+02 E0= -.43213149E+02  d E =-.432131E+02
 curvature:   0.00 expect dE= 0.000E+00 dE for cont linesearch  0.000E+00
 trial: gam= 0.00000 g(F)=  0.164E-43 g(S)=  0.000E+00 ort = 0.000E+00 (trialstep = 0.100E+01)
 search vector abs. value=  0.100E-09
 reached required accuracy - stopping structural energy minimisation
 running on    4 total cores
 distrk:  each k-point on    4 cores,    1 groups
 distr:  one band on    2 cores,    2 groups
 using from now: INCAR     
 vasp.5.4.1 05Feb16 (build Mar 17 2017 08:48:41) complex                        
  
 POSCAR found type information on POSCAR  Si
 POSCAR found :  1 types and       8 ions
 scaLAPACK will be used
 LDA part: xc-table for Pade appr. of Perdew
 POSCAR, INCAR and KPOINTS ok, starting setup
 FFT: planning ...
 WAVECAR not read
 entering main loop
       N       E                     dE             d eps       ncg     rms          rms(c)
DAV:   1     0.493751084910E+02    0.49375E+02   -0.89706E+03  3300   0.792E+02
DAV:   2    -0.394173264318E+02   -0.88792E+02   -0.83327E+02  4496   0.134E+02
DAV:   3    -0.435197527372E+02   -0.41024E+01   -0.40449E+01  4246   0.282E+01
DAV:   4    -0.436009622667E+02   -0.81210E-01   -0.81002E-01  4120   0.486E+00
DAV:   5    -0.436033932854E+02   -0.24310E-02   -0.24301E-02  4278   0.700E-01    0.554E+00
RMM:   6    -0.432543027438E+02    0.34909E+00   -0.17878E-01  3300   0.170E+00    0.335E+00
RMM:   7    -0.430818556544E+02    0.17245E+00   -0.42892E-01  3300   0.274E+00    0.262E-01
RMM:   8    -0.430872404773E+02   -0.53848E-02   -0.14122E-02  3383   0.544E-01    0.465E-02
RMM:   9    -0.430877058290E+02   -0.46535E-03   -0.11898E-03  3325   0.174E-01    0.200E-02
RMM:  10    -0.430877871942E+02   -0.81365E-04   -0.30827E-04  3300   0.909E-02    0.887E-03
RMM:  11    -0.430877720870E+02    0.15107E-04   -0.24683E-05  2216   0.257E-02    0.128E-03
RMM:  12    -0.430877723533E+02   -0.26627E-06   -0.34986E-06  2027   0.108E-02
   1 F= -.43087772E+02 E0= -.43087772E+02  d E =-.430878E+02
 curvature:   0.00 expect dE= 0.000E+00 dE for cont linesearch  0.000E+00
 trial: gam= 0.00000 g(F)=  0.901E-44 g(S)=  0.000E+00 ort = 0.000E+00 (trialstep = 0.100E+01)
 search vector abs. value=  0.100E-09
 reached required accuracy - stopping structural energy minimisation
e+02]
Energy:
       eV             Hartree            kJ/mol            kcal/mol
-43.2879010000  -1.5908000602  -4176.6465645495  -998.2425500069
End of Strain -2.0 in Mode 2

Start calculating Strain -1.0 in Mode 2
BaseVec:
     5.4119998707     0.0000000000     0.0000000000
     0.0000000000     5.4119993981     0.0000000000
     0.0000000000     0.0000000000     5.4669454405
Lattice Parameter:
    a         b         c      alpha   beta    gamma
5.412000  5.411999  5.466945  90.000  90.000  90.000
Volume : 160.125410783

mpirun -np 4 vasp_std
/home/opensoft/liaomingqing/Elastic3rd/VASP/Si/Elastic3rd/Si/Mode2/Strain-1.0
Energy:
       eV             Hartree            kJ/mol            kcal/mol
-43.3594720000  -1.5934302444  -4183.5521147001  -999.8930162087
[-4.33594720e+01 -1.59343024e+00 -4.18355211e+03 -9.99893016e+02]
Energy:
       eV             Hartree            kJ/mol            kcal/mol
-43.3594720000  -1.5934302444  -4183.5521147001  -999.8930162087
End of Strain -1.0 in Mode 2

Start calculating Strain 0.0 in Mode 2
End of Strain 0.0 in Mode 2

Start calculating Strain 1.0 in Mode 2
BaseVec:
     5.5213442474     0.0000000000     0.0000000000
     0.0000000000     5.5213437653     0.0000000000
     0.0000000000     0.0000000000     5.4669454405
Lattice Parameter:
    a         b         c      alpha   beta    gamma
5.521344  5.521344  5.466945  90.000  90.000  90.000
Volume : 166.661141835

mpirun -np 4 vasp_std
/home/opensoft/liaomingqing/Elastic3rd/VASP/Si/Elastic3rd/Si/Mode2/Strain1.0
Energy:
       eV             Hartree            kJ/mol            kcal/mol
-43.3645700000  -1.5936175923  -4184.0439968125  -1000.0105788625
[-4.33645700e+01 -1.59361759e+00 -4.18404400e+03 -1.00001058e+03]
Energy:
       eV             Hartree            kJ/mol            kcal/mol
-43.3645700000  -1.5936175923  -4184.0439968125  -1000.0105788625
End of Strain 1.0 in Mode 2

Start calculating Strain 2.0 in Mode 2
BaseVec:
     5.5752122962     0.0000000000     0.0000000000
     0.0000000000     5.5752118094     0.0000000000
     0.0000000000     0.0000000000     5.4669454405
Lattice Parameter:
    a         b         c      alpha   beta    gamma
5.575212  5.575212  5.466945  90.000  90.000  90.000
Volume : 169.929007361

mpirun -np 4 vasp_std
/home/opensoft/liaomingqing/Elastic3rd/VASP/Si/Elastic3rd/Si/Mode2/Strain2.0
Energy:
       eV             Hartree            kJ/mol            kcal/mol
-43.3064920000  -1.5914832665  -4178.4403229551  -998.6712685823
[-4.33064920e+01 -1.59148327e+00 -4.17844032e+03 -9.98671269e+02]
Energy:
       eV             Hartree            kJ/mol            kcal/mol
-43.3064920000  -1.5914832665  -4178.4403229551  -998.6712685823
End of Strain 2.0 in Mode 2

Start calculating Strain 3.0 in Mode 2
BaseVec:
     5.6285648257     0.0000000000     0.0000000000
     0.0000000000     5.6285643342     0.0000000000
     0.0000000000     0.0000000000     5.4669454405
Lattice Parameter:
    a         b         c      alpha   beta    gamma
5.628565  5.628564  5.466945  90.000  90.000  90.000
Volume : 173.196872887

mpirun -np 4 vasp_std
/home/opensoft/liaomingqing/Elastic3rd/VASP/Si/Elastic3rd/Si/Mode2/Strain3.0
Energy:
       eV             Hartree            kJ/mol            kcal/mol
-43.2131490000  -1.5880529765  -4169.4340946265  -996.5187282144
[-4.32131490e+01 -1.58805298e+00 -4.16943409e+03 -9.96518728e+02]
Energy:
       eV             Hartree            kJ/mol            kcal/mol
-43.2131490000  -1.5880529765  -4169.4340946265  -996.5187282144
End of Strain 3.0 in Mode 2

Start calculating Strain 4.0 in Mode 2
BaseVec:
     5.6814163591     0.0000000000     0.0000000000
     0.0000000000     5.6814158630     0.0000000000
     0.0000000000     0.0000000000     5.4669454405
Lattice Parameter:
    a         b         c      alpha   beta    gamma
5.681416  5.681416  5.466945  90.000  90.000  90.000
Volume : 176.464738413

mpirun -np 4 vasp_std
/home/opensoft/liaomingqing/Elastic3rd/VASP/Si/Elastic3rd/Si/Mode2/Strain4.0
Energy:
       eV             Hartree            kJ/mol            kcal/mol
-4 running on    4 total cores
 distrk:  each k-point on    4 cores,    1 groups
 distr:  one band on    2 cores,    2 groups
 using from now: INCAR     
 vasp.5.4.1 05Feb16 (build Mar 17 2017 08:48:41) complex                        
  
 POSCAR found type information on POSCAR  Si
 POSCAR found :  1 types and       8 ions
 scaLAPACK will be used
 LDA part: xc-table for Pade appr. of Perdew
 POSCAR, INCAR and KPOINTS ok, starting setup
 FFT: planning ...
 WAVECAR not read
 entering main loop
       N       E                     dE             d eps       ncg     rms          rms(c)
DAV:   1     0.496431915725E+02    0.49643E+02   -0.89063E+03  3300   0.788E+02
DAV:   2    -0.390394245109E+02   -0.88683E+02   -0.82842E+02  4328   0.133E+02
DAV:   3    -0.433347293744E+02   -0.42953E+01   -0.42354E+01  4324   0.285E+01
DAV:   4    -0.434133710443E+02   -0.78642E-01   -0.78452E-01  4068   0.476E+00
DAV:   5    -0.434158167677E+02   -0.24457E-02   -0.24445E-02  4318   0.713E-01    0.545E+00
RMM:   6    -0.430910126799E+02    0.32480E+00   -0.16376E-01  3300   0.163E+00    0.330E+00
RMM:   7    -0.429277394075E+02    0.16327E+00   -0.40057E-01  3300   0.266E+00    0.255E-01
RMM:   8    -0.429331297869E+02   -0.53904E-02   -0.13505E-02  3385   0.534E-01    0.468E-02
RMM:   9    -0.429336069273E+02   -0.47714E-03   -0.11789E-03  3319   0.174E-01    0.195E-02
RMM:  10    -0.429336883121E+02   -0.81385E-04   -0.31677E-04  3300   0.916E-02    0.972E-03
RMM:  11    -0.429336716182E+02    0.16694E-04   -0.26739E-05  2234   0.265E-02    0.127E-03
RMM:  12    -0.429336719257E+02   -0.30752E-06   -0.35347E-06  2038   0.109E-02
   1 F= -.42933672E+02 E0= -.42933672E+02  d E =-.429337E+02
 curvature:   0.00 expect dE= 0.000E+00 dE for cont linesearch  0.000E+00
 trial: gam= 0.00000 g(F)=  0.405E-44 g(S)=  0.000E+00 ort = 0.000E+00 (trialstep = 0.100E+01)
 search vector abs. value=  0.100E-09
 reached required accuracy - stopping structural energy minimisation
 running on    4 total cores
 distrk:  each k-point on    4 cores,    1 groups
 distr:  one band on    2 cores,    2 groups
 using from now: INCAR     
 vasp.5.4.1 05Feb16 (build Mar 17 2017 08:48:41) complex                        
  
 POSCAR found type information on POSCAR  Si
 POSCAR found :  1 types and       8 ions
 scaLAPACK will be used
 LDA part: xc-table for Pade appr. of Perdew
 POSCAR, INCAR and KPOINTS ok, starting setup
 FFT: planning ...
 WAVECAR not read
 entering main loop
       N       E                     dE             d eps       ncg     rms          rms(c)
DAV:   1     0.490468617974E+02    0.49047E+02   -0.88453E+03  3300   0.785E+02
DAV:   2    -0.390528679280E+02   -0.88100E+02   -0.82830E+02  4454   0.133E+02
DAV:   3    -0.431259461782E+02   -0.40731E+01   -0.40189E+01  4268   0.281E+01
DAV:   4    -0.432024979544E+02   -0.76552E-01   -0.76386E-01  4194   0.476E+00
DAV:   5    -0.432044636928E+02   -0.19657E-02   -0.19648E-02  4196   0.671E-01    0.536E+00
RMM:   6    -0.429023100452E+02    0.30215E+00   -0.15001E-01  3300   0.157E+00    0.326E+00
RMM:   7    -0.427476916749E+02    0.15462E+00   -0.37464E-01  3300   0.258E+00    0.248E-01
RMM:   8    -0.427530833593E+02   -0.53917E-02   -0.12938E-02  3384   0.525E-01    0.471E-02
RMM:   9    -0.427535714309E+02   -0.48807E-03   -0.11897E-03  3322   0.175E-01    0.191E-02
RMM:  10    -0.427536520979E+02   -0.80667E-04   -0.32250E-04  3301   0.922E-02    0.103E-02
RMM:  11    -0.427536343481E+02    0.17750E-04   -0.28578E-05  2269   0.272E-02    0.130E-03
RMM:  12    -0.427536347160E+02   -0.36794E-06   -0.34976E-06  2044   0.109E-02
   1 F= -.42753635E+02 E0= -.42753635E+02  d E =-.427536E+02
 curvature:   0.00 expect dE= 0.000E+00 dE for cont linesearch  0.000E+00
 trial: gam= 0.00000 g(F)=  0.136E-43 g(S)=  0.000E+00 ort = 0.000E+00 (trialstep = 0.100E+01)
 search vector abs. value=  0.100E-09
 reached required accuracy - stopping structural energy minimisation
 running on    4 total cores
 distrk:  each k-point on    4 cores,    1 groups
 distr:  one band on    2 cores,    2 groups
 using from now: INCAR     
 vasp.5.4.1 05Feb16 (build Mar 17 2017 08:48:41) complex                        
  
 POSCAR found type information on POSCAR  Si
 POSCAR found :  1 types and       8 ions
 scaLAPACK will be used
 LDA part: xc-table for Pade appr. of Perdew
 POSCAR, INCAR and KPOINTS ok, starting setup
 WARNING: small aliasing (wrap around) errors must be expected
 FFT: planning ...
 WAVECAR not read
 entering main loop
       N       E                     dE             d eps       ncg     rms          rms(c)
DAV:   1     0.516905425414E+02    0.51691E+02   -0.92299E+03  4620   0.807E+02
DAV:   2    -0.391021656543E+02   -0.90793E+02   -0.85041E+02  6200   0.139E+02
DAV:   3    -0.431477359040E+02   -0.40456E+01   -0.39800E+01  5964   0.288E+01
DAV:   4    -0.432224377457E+02   -0.74702E-01   -0.74459E-01  5762   0.482E+00
DAV:   5    -0.432242910981E+02   -0.18534E-02   -0.18524E-02  6002   0.638E-01    0.643E+00
RMM:   6    -0.424946841060E+02    0.72961E+00   -0.52510E-01  4620   0.280E+00    0.375E+00
RMM:   7    -0.422109597893E+02    0.28372E+00   -0.99239E-01  4620   0.390E+00    0.413E-01
RMM:   8    -0.422111999691E+02   -0.24018E-03   -0.30629E-02  4641   0.889E-01    0.124E-01
RMM:   9    -0.422110509928E+02    0.14898E-03   -0.38436E-03  4661   0.238E-01    0.381E-02
RMM:  10    -0.422111027582E+02   -0.51765E-04   -0.33281E-04  4719   0.902E-02    0.142E-02
RMM:  11    -0.422111437261E+02   -0.40968E-04   -0.73088E-05  4327   0.341E-02    0.366E-03
RMM:  12    -0.422111340913E+02    0.96349E-05   -0.40315E-06  2871   0.116E-02
   1 F= -.42211134E+02 E0= -.42211134E+02  d E =-.422111E+02
 curvature:   0.00 expect dE= 0.000E+00 dE for cont linesearch  0.000E+00
 trial: gam= 0.00000 g(F)=  0.931E+00 g(S)=  0.000E+00 ort = 0.000E+00 (trialstep = 0.100E+01)
 search vector abs. value=  0.931E+00
 bond charge predicted
       N       E                     dE             d eps       ncg     rms          rms(c)
DAV:   1    -0.424940690933E+02   -0.28293E+00   -0.11565E+01  5288   0.173E+01    0.703E-01
RMM:   2    -0.425538316382E+02   -0.59763E-01   -0.62009E-01  4624   0.408E+00    0.533E-01
RMM:   3    -0.425510959313E+02    0.27357E-02   -0.24956E-02  4700   0.876E-01    0.314E-01
RMM:   4    -0.425486340719E+02    0.24619E-02   -0.93821E-03  4620   0.410E-01    0.495E-02
RMM:   5    -0.425487042622E+02   -0.70190E-04   -0.36010E-04  4626   0.920E-02    0.119E-02
RMM:   6    -0.425487767429E+02   -0.72481E-04   -0.62837E-05  4367   0.316E-02    0.670E-03
RMM:   7    -0.425487403916E+02    0.36351E-04   -0.64684E-06  2800   0.123E-02    0.143E-03
RMM:   8    -0.425487370202E+02    0.33714E-05   -0.76789E-07  1810   0.541E-03
   2 F= -.42548737E+02 E0= -.42548737E+02  d E =-.337603E+00
 trial-energy change:   -0.337603  1 .order   -0.334523   -0.930564    0.261518
 step:   0.7833(harm=  0.7806)  dis= 0.05867  next Energy=   -42.577047 (dE=-0.366E+00)
 bond charge predicted
       N       E                     dE             d eps       ncg     rms          rms(c)
DAV:   1    -0.425704933437E+02   -0.21753E-01   -0.54189E-01  5088   0.371E+00    0.154E-01
RMM:   2    -0.425732955877E+02   -0.28022E-02   -0.27764E-02  4624   0.876E-01    0.117E-01
RMM:   3    -0.425733854494E+02   -0.89862E-04   -0.10687E-03  4689   0.188E-01    0.665E-02
RMM:   4    -0.425735862168E+02   -0.20077E-03   -0.44326E-04  4620   0.883E-02    0.106E-02
RMM:   5    -0.425735081595E+02    0.78057E-04   -0.16151E-05  2802   0.201E-02    0.250E-03
RMM:   6    -0.425734964481E+02    0.11711E-04   -0.27447E-06  2680   0.823E-03    0.135E-03
RMM:   7    -0.425735043566E+02   -0.79084E-05   -0.21573E-07  1132   0.376E-03
   3 F= -.42573504E+02 E0= -.42573504E+02  d E =-.362370E+00
 curvature:  -0.39 expect dE=-0.113E-03 dE for cont linesearch -0.113E-03
 ZBRENT: interpolating
 opt :   0.7697  next Energy=   -42.573616 (dE=-0.362E+00)
 bond charge predicted
       N       E                     dE             d eps       ncg     rms          rms(c)
DAV:   1    -0.425732412968E+02    0.25515E-03   -0.20943E-03  5682   0.232E-01    0.937E-03
RMM:   2    -0.425732567873E+02   -0.15490E-04   -0.11268E-04  4240   0.550E-02    0.707E-03
RMM:   3    -0.425732671531E+02   -0.10366E-04   -0.37112E-06  2450   0.123E-02    0.440E-03
RMM:   4    -0.425732828339E+02   -0.15681E-04   -0.18813E-06  2393   0.696E-03    0.599E-04
RMM:   5    -0.425732794804E+02    0.33535E-05   -0.67569E-08   509   0.277E-03
   4 F= -.42573279E+02 E0= -.42573279E+02  d E =-.362145E+00
 curvature:  -0.38 expect dE=-0.262E-07 dE for cont linesearch -0.262E-07
 trial: gam= 0.00000 g(F)=  0.680E-07 g(S)=  0.000E+00 ort =-0.252E-03 (trialstep = 0.954E+00)
 search vector abs. value=  0.681E-07
 reached required accuracy - stopping structural energy minimisation
 running on    4 total cores
 distrk:  each k-point on    4 cores,    1 groups
 distr:  one band on    2 cores,    2 groups
 using from now: INCAR     
 vasp.5.4.1 05Feb16 (build Mar 17 2017 08:48:41) complex                        
  
 POSCAR found type information on POSCAR  Si
 POSCAR found :  1 types and       8 ions
 scaLAPACK will be used
 LDA part: xc-table for Pade appr. of Perdew
 POSCAR, INCAR and KPOINTS ok, starting setup
 WARNING: small aliasing (wrap around) errors must be expected
 FFT: planning ...
 WAVECAR not read
 entering main loop
       N       E                     dE             d eps       ncg     rms          rms(c)
DAV:   1     0.522406043523E+02    0.52241E+02   -0.92205E+03  4620   0.803E+02
DAV:   2    -0.393982123945E+02   -0.91639E+02   -0.85941E+02  6206   0.139E+02
DAV:   3    -0.434405496417E+02   -0.40423E+01   -0.39805E+01  5970   0.286E+01
DAV:   4    -0.435135452400E+02   -0.72996E-01   -0.72803E-01  5850   0.471E+00
DAV:   5    -0.435154739396E+02   -0.19287E-02   -0.19278E-02  5882   0.645E-01    0.631E+00
RMM:   6    -0.428555195956E+02    0.65995E+00   -0.44619E-01  4620   0.260E+00    0.370E+00
RMM:   7    -0.425856019927E+02    0.26992E+00   -0.87247E-01  4620   0.370E+00    0.378E-01
RMM:   8    -0.425882651406E+02   -0.26631E-02   -0.24490E-02  4658   0.791E-01    0.491E-02
RMM:   9    -0.425885155757E+02   -0.25044E-03   -0.18679E-03  4826   0.182E-01    0.337E-02
RMM:  10    -0.425886073930E+02   -0.91817E-04   -0.29591E-04  4623   0.881E-02    0.160E-02
RMM:  11    -0.425886146314E+02   -0.72384E-05   -0.36695E-05  3454   0.252E-02
   1 F= -.42588615E+02 E0= -.42588615E+02  d E =-.425886E+02
 curvature:   0.00 expect dE= 0.000E+00 dE for cont linesearch  0.000E+00
 trial: gam= 0.00000 g(F)=  0.563E+00 g(S)=  0.000E+00 ort = 0.000E+00 (trialstep = 0.100E+01)
 search vector abs. value=  0.563E+00
 bond charge predicted
       N       E                     dE             d eps       ncg     rms          rms(c)
DAV:   1    -0.427582744811E+02   -0.16967E+00   -0.69877E+00  5240   0.134E+01    0.531E-01
RMM:   2    -0.427957696112E+02   -0.37495E-01   -0.38237E-01  4623   0.319E+00    0.404E-01
RMM:   3    -0.427949912871E+02    0.77832E-03   -0.15869E-02  4733   0.691E-01    0.261E-01
RMM:   4    -0.427934540147E+02    0.15373E-02   -0.67153E-03  4620   0.344E-01    0.407E-02
RMM:   5    -0.427934185007E+02    0.35514E-04   -0.14930E-04  4631   0.660E-02    0.149E-02
RMM:   6    -0.427934795948E+02   -0.61094E-04   -0.14388E-04  4621   0.448E-02    0.887E-03
RMM:   7    -0.427934541642E+02    0.25431E-04   -0.63574E-06  2788   0.132E-02    0.274E-03
RMM:   8    -0.427934463134E+02    0.78507E-05   -0.31875E-06  2731   0.760E-03
   2 F= -.42793446E+02 E0= -.42793446E+02  d E =-.204832E+00
 trial-energy change:   -0.204832  1 .order   -0.205443   -0.563023    0.152137
 step:   0.7873(harm=  0.7873)  dis= 0.04587  next Energy=   -42.810240 (dE=-0.222E+00)
 bond charge predicted
       N       E                     dE             d eps       ncg     rms          rms(c)
DAV:   1    -0.428064372313E+02   -0.12983E-01   -0.31582E-01  5190   0.283E+00    0.113E-01
RMM:   2    -0.428081196099E+02   -0.16824E-02   -0.16773E-02  4623   0.675E-01    0.853E-02
RMM:   3    -0.428081407790E+02   -0.21169E-04   -0.68176E-04  4723   0.146E-01    0.554E-02
RMM:   4    -0.428081706676E+02   -0.29889E-04   -0.30331E-04  4619   0.733E-02    0.951E-03
RMM:   5    -0.428081507470E+02    0.19921E-04   -0.63103E-06  2748   0.141E-02    0.359E-03
RMM:   6    -0.428081397105E+02    0.11036E-04   -0.76988E-06  2653   0.113E-02    0.194E-03
RMM:   7    -0.428081422933E+02   -0.25828E-05   -0.76962E-07  2091   0.550E-03
   3 F= -.42808142E+02 E0= -.42808142E+02  d E =-.219528E+00
 curvature:  -0.39 expect dE=-0.392E-05 dE for cont linesearch -0.392E-05
 trial: gam= 0.00000 g(F)=  0.997E-05 g(S)=  0.000E+00 ort =-0.237E-02 (trialstep = 0.957E+00)
 search vector abs. value=  0.997E-05
 reached required accuracy - stopping structural energy minimisation
3.0877720000  -1.5834454596  -4157.3370558644  -993.6274663767
[-4.30877720e+01 -1.58344546e+00 -4.15733706e+03 -9.93627466e+02]
Energy:
       eV             Hartree            kJ/mol            kcal/mol
-43.0877720000  -1.5834454596  -4157.3370558644  -993.6274663767
End of Strain 4.0 in Mode 2

Start calculating Strain 5.0 in Mode 2
BaseVec:
     5.7337807505     0.0000000000     0.0000000000
     0.0000000000     5.7337802498     0.0000000000
     0.0000000000     0.0000000000     5.4669454405
Lattice Parameter:
    a         b         c      alpha   beta    gamma
5.733781  5.733780  5.466945  90.000  90.000  90.000
Volume : 179.73260394

mpirun -np 4 vasp_std
/home/opensoft/liaomingqing/Elastic3rd/VASP/Si/Elastic3rd/Si/Mode2/Strain5.0
Energy:
       eV             Hartree            kJ/mol            kcal/mol
-42.9336720000  -1.5777823924  -4142.4686695318  -990.0738365309
[-4.29336720e+01 -1.57778239e+00 -4.14246867e+03 -9.90073837e+02]
Energy:
       eV             Hartree            kJ/mol            kcal/mol
-42.9336720000  -1.5777823924  -4142.4686695318  -990.0738365309
End of Strain 5.0 in Mode 2

Start calculating Strain 6.0 in Mode 2
BaseVec:
     5.7856712267     0.0000000000     0.0000000000
     0.0000000000     5.7856707215     0.0000000000
     0.0000000000     0.0000000000     5.4669454405
Lattice Parameter:
    a         b         c      alpha   beta    gamma
5.785671  5.785671  5.466945  90.000  90.000  90.000
Volume : 183.000469466

mpirun -np 4 vasp_std
/home/opensoft/liaomingqing/Elastic3rd/VASP/Si/Elastic3rd/Si/Mode2/Strain6.0
Energy:
       eV             Hartree            kJ/mol            kcal/mol
-42.7536350000  -1.5711661587  -4125.0977437033  -985.9220853528
[-4.27536350e+01 -1.57116616e+00 -4.12509774e+03 -9.85922085e+02]
Energy:
       eV             Hartree            kJ/mol            kcal/mol
[...]
RMM:   2    -0.429818926897E+02   -0.12193E-01   -0.12261E-01  2862   0.178E+00    0.201E-01
RMM:   3    -0.429824287501E+02   -0.53606E-03   -0.59313E-03  2962   0.401E-01    0.134E-01
RMM:   4    -0.429823303135E+02    0.98437E-04   -0.12374E-03  2861   0.161E-01    0.200E-02
RMM:   5    -0.429823155903E+02    0.14723E-04   -0.22156E-05  1904   0.270E-02    0.154E-02
RMM:   6    -0.429823033975E+02    0.12193E-04   -0.13857E-04  2852   0.422E-02    0.673E-03
RMM:   7    -0.429822997282E+02    0.36693E-05   -0.35569E-06  1676   0.109E-02
   2 F= -.42982300E+02 E0= -.42982300E+02  d E =-.899246E-01
 trial-energy change:   -0.089925  1 .order   -0.086951   -0.186875    0.012973
 step:   0.9401(harm=  0.9351)  dis= 0.01822  next Energy=   -42.982688 (dE=-0.903E-01)
 bond charge predicted
       N       E                     dE             d eps       ncg     rms          rms(c)
DAV:   1    -0.429826357366E+02   -0.33234E-03   -0.86848E-03  3472   0.452E-01    0.163E-02
RMM:   2    -0.429826884983E+02   -0.52762E-04   -0.51255E-04  2827   0.114E-01    0.127E-02
RMM:   3    -0.429826904431E+02   -0.19449E-05   -0.20335E-05  1731   0.256E-02
   3 F= -.42982690E+02 E0= -.42982690E+02  d E =-.903153E-01
 curvature:  -0.46 expect dE=-0.501E-07 dE for cont linesearch -0.501E-07
 trial: gam=-0.00076 g(F)=  0.108E-06 g(S)=  0.000E+00 ort = 0.142E-03 (trialstep = 0.988E+00)
 search vector abs. value=  0.100E-09
 reached required accuracy - stopping structural energy minimisation
 running on    4 total cores
 distrk:  each k-point on    4 cores,    1 groups
 distr:  one band on    2 cores,    2 groups
 using from now: INCAR     
 vasp.5.4.1 05Feb16 (build Mar 17 2017 08:48:41) complex                        
  
 POSCAR found type information on POSCAR  Si
 POSCAR found :  1 types and       8 ions
 scaLAPACK will be used
 LDA part: xc-table for Pade appr. of Perdew
 POSCAR, INCAR and KPOINTS ok, starting setup
 WARNING: small aliasing (wrap around) errors must be expected
 FFT: planning ...
 WAVECAR not read
 entering main loop
       N       E                     dE             d eps       ncg     rms          rms(c)
DAV:   1     0.513999345994E+02    0.51400E+02   -0.90986E+03  2860   0.797E+02
DAV:   2    -0.392321347462E+02   -0.90632E+02   -0.84802E+02  3838   0.138E+02
DAV:   3    -0.433502112496E+02   -0.41181E+01   -0.40610E+01  3714   0.290E+01
DAV:   4    -0.434271465031E+02   -0.76935E-01   -0.76778E-01  3654   0.487E+00
DAV:   5    -0.434292787919E+02   -0.21323E-02   -0.21313E-02  3682   0.684E-01    0.613E+00
RMM:   6    -0.427885241664E+02    0.64075E+00   -0.48489E-01  2860   0.262E+00    0.361E+00
RMM:   7    -0.425327848802E+02    0.25574E+00   -0.94713E-01  2860   0.373E+00    0.398E-01
RMM:   8    -0.425349217359E+02   -0.21369E-02   -0.28739E-02  2887   0.874E-01    0.652E-02
RMM:   9    -0.425350525816E+02   -0.13085E-03   -0.22547E-03  2941   0.197E-01    0.368E-02
RMM:  10    -0.425351964905E+02   -0.14391E-03   -0.35774E-04  2888   0.965E-02    0.137E-02
RMM:  11    -0.425351958808E+02    0.60963E-06   -0.44188E-05  2170   0.266E-02
   1 F= -.42535196E+02 E0= -.42535196E+02  d E =-.425352E+02
 curvature:   0.00 expect dE= 0.000E+00 dE for cont linesearch  0.000E+00
 trial: gam= 0.00000 g(F)=  0.278E+00 g(S)=  0.000E+00 ort = 0.000E+00 (trialstep = 0.100E+01)
 search vector abs. value=  0.278E+00
 bond charge predicted
       N       E                     dE             d eps       ncg     rms          rms(c)
DAV:   1    -0.426613573528E+02   -0.12616E+00   -0.33637E+00  3228   0.885E+00    0.342E-01
RMM:   2    -0.426788359840E+02   -0.17479E-01   -0.17484E-01  2862   0.215E+00    0.245E-01
RMM:   3    -0.426793747269E+02   -0.53874E-03   -0.78318E-03  2957   0.478E-01    0.158E-01
RMM:   4    -0.426790277334E+02    0.34699E-03   -0.16566E-03  2860   0.188E-01    0.220E-02
RMM:   5    -0.426790309185E+02   -0.31851E-05   -0.32285E-05  2010   0.319E-02
   2 F= -.42679031E+02 E0= -.42679031E+02  d E =-.143835E+00
 trial-energy change:   -0.143835  1 .order   -0.138157   -0.278227    0.001912
 step:   0.9939(harm=  0.9932)  dis= 0.02350  next Energy=   -42.679037 (dE=-0.144E+00)
 bond charge predicted
       N       E                     dE             d eps       ncg     rms          rms(c)
DAV:   1    -0.426790570237E+02   -0.29290E-04   -0.81498E-05  3472   0.486E-02    0.980E-03
RMM:   2    -0.426790382143E+02    0.18809E-04   -0.12863E-05  1579   0.177E-02    0.536E-03
RMM:   3    -0.426790231015E+02    0.15113E-04   -0.10341E-05  1529   0.129E-02    0.870E-04
RMM:   4    -0.426790242577E+02   -0.11562E-05   -0.12955E-06  1437   0.677E-03
   3 F= -.42679024E+02 E0= -.42679024E+02  d E =-.143828E+00
 curvature:  -0.49 expect dE=-0.181E-07 dE for cont linesearch -0.181E-07
 trial: gam=-0.00036 g(F)=  0.368E-07 g(S)=  0.000E+00 ort = 0.101E-03 (trialstep = 0.999E+00)
 search vector abs. value=  0.100E-09
 reached required accuracy - stopping structural energy minimisation

End of Strain -2.0 in Mode 6

Start calculating Strain -1.0 in Mode 6
BaseVec:
     5.4663930691     -0.0549511784     -0.0549511784
     -0.0549511736     5.4663925917     -0.0549511736
     -0.0549511784     -0.0549511784     5.4663930691
Lattice Parameter:
    a         b         c      alpha   beta    gamma
5.466945  5.466945  5.466945  91.146  91.146  91.146
Volume : 163.293902978

mpirun -np 4 vasp_std
/home/opensoft/liaomingqing/Elastic3rd/VASP/Si/Elastic3rd/Si/Mode6/Strain-1.0
Energy:
       eV             Hartree            kJ/mol            kcal/mol
-43.3371390000  -1.5926095223  -4181.3973082629  -999.3780050773
[-4.33371390e+01 -1.59260952e+00 -4.18139731e+03 -9.99378005e+02]
Energy:
       eV             Hartree            kJ/mol            kcal/mol
-43.3371390000  -1.5926095223  -4181.3973082629  -999.3780050773
End of Strain -1.0 in Mode 6

Start calculating Strain 0.0 in Mode 6
End of Strain 0.0 in Mode 6

Start calculating Strain 1.0 in Mode 6
BaseVec:
     5.4664040125     0.0544041418     0.0544041418
     0.0544041371     5.4664035352     0.0544041371
     0.0544041418     0.0544041418     5.4664040125
Lattice Parameter:
    a         b         c      alpha   beta    gamma
5.466945  5.466945  5.466945  88.854  88.854  88.854
Volume : 163.29651884

mpirun -np 4 vasp_std
/home/opensoft/liaomingqing/Elastic3rd/VASP/Si/Elastic3rd/Si/Mode6/Strain1.0
Energy:
       eV             Hartree            kJ/mol            kcal/mol
-43.3381940000  -1.5926482928  -4181.4991002654  -999.4023339514
[-4.33381940e+01 -1.59264829e+00 -4.18149910e+03 -9.99402334e+02]
Energy:
       eV             Hartree            kJ/mol            kcal/mol
-43.3381940000  -1.5926482928  -4181.4991002654  -999.4023339514
End of Strain 1.0 in Mode 6

Start calculating Strain 2.0 in Mode 6
BaseVec:
     5.4647992613     0.1083085489     0.1083085489
     0.1083085395     5.4647987841     0.1083085395
     0.1083085489     0.1083085489     5.4647992613
Lattice Parameter:
    a         b         c      alpha   beta    gamma
5.466945  5.466945  5.466945  87.708  87.708  87.708
Volume : 163.011142761

mpirun -np 4 vasp_std
/home/opensoft/liaomingqing/Elastic3rd/VASP/Si/Elastic3rd/Si/Mode6/Strain2.0
Energy:
       eV             Hartree            kJ/mol            kcal/mol
-43.2037550000  -1.5877077536  -4168.5277116206  -996.3020974631
[-4.32037550e+01 -1.58770775e+00 -4.16852771e+03 -9.96302097e+02]
Energy:
       eV             Hartree            kJ/mol            kcal/mol
-43.2037550000  -1.5877077536  -4168.5277116206  -996.3020974631
End of Strain 2.0 in Mode 6

Start calculating Strain 3.0 in Mode 6
BaseVec:
     5.4621572481     0.1617569893     0.1617569893
     0.1617569752     5.4621567711     0.1617569752
     0.1617569893     0.1617569893     5.4621572481
Lattice Parameter:
    a         b         c      alpha   beta    gamma
5.466945  5.466945  5.466945  86.560  86.560  86.560
Volume : 162.544038605

mpirun -np 4 vasp_std
/home/opensoft/liaomingqing/Elastic3rd/VASP/Si/Elastic3rd/Si/Mode6/Strain3.0
Energy:
       eV             Hartree            kJ/mol            kcal/mol
-42.9826900000  -1.5795837696  -4147.1981864770  -991.2042182816
[-4.29826900e+01 -1.57958377e+00 -4.14719819e+03 -9.91204218e+02]
Energy:
       eV             Hartree            kJ/mol            kcal/mol
-42.9826900000  -1.5795837696  -4147.1981864770  -991.2042182816
End of Strain 3.0 in Mode 6

Start calculating Strain 4.0 in Mode 6
BaseVec:
     5.4585000499     0.2147901939     0.2147901939
     0.2147901752     5.4584995733     0.2147901752
     0.2147901939     0.2147901939     5.4585000499
Lattice Parameter:
    a         b         c      alpha   beta    gamma
5.466945  5.466945  5.466945  85.411  85.411  85.411
Volume : 161.901548719

mpirun -np 4 vasp_std
/home/opensoft/liaomingqing/Elastic3rd/VASP/Si/Elastic3rd/Si/Mode6/Strain4.0
Energy:
       eV             Hartree            kJ/mol            kcal/mol
-42.6790240000  -1.5684242567  -4117.8988782090  -984.2015150970
[-4.26790240e+01 -1.56842426e+00 -4.11789888e+03 -9.84201515e+02]
Energy:
       running on    4 total cores
 distrk:  each k-point on    4 cores,    1 groups
 distr:  one band on    2 cores,    2 groups
 using from now: INCAR     
 vasp.5.4.1 05Feb16 (build Mar 17 2017 08:48:41) complex                        
  
 POSCAR found type information on POSCAR  Si
 POSCAR found :  1 types and       8 ions
 scaLAPACK will be used
 LDA part: xc-table for Pade appr. of Perdew
 POSCAR, INCAR and KPOINTS ok, starting setup
 WARNING: small aliasing (wrap around) errors must be expected
 FFT: planning ...
 WAVECAR not read
 entering main loop
       N       E                     dE             d eps       ncg     rms          rms(c)
DAV:   1     0.537164490367E+02    0.53716E+02   -0.91534E+03  2860   0.800E+02
DAV:   2    -0.387845608151E+02   -0.92501E+02   -0.86844E+02  3830   0.139E+02
DAV:   3    -0.430302254061E+02   -0.42457E+01   -0.41763E+01  3762   0.291E+01
DAV:   4    -0.431060972449E+02   -0.75872E-01   -0.75728E-01  3604   0.480E+00
DAV:   5    -0.431081031192E+02   -0.20059E-02   -0.20050E-02  3710   0.676E-01    0.625E+00
RMM:   6    -0.423685137661E+02    0.73959E+00   -0.61576E-01  2860   0.290E+00    0.365E+00
RMM:   7    -0.420896510834E+02    0.27886E+00   -0.11443E+00  2860   0.401E+00    0.443E-01
RMM:   8    -0.420908777790E+02   -0.12267E-02   -0.35812E-02  2878   0.986E-01    0.110E-01
RMM:   9    -0.420905419374E+02    0.33584E-03   -0.41056E-03  2897   0.246E-01    0.403E-02
RMM:  10    -0.420907266710E+02   -0.18473E-03   -0.47109E-04  2912   0.112E-01    0.143E-02
RMM:  11    -0.420907275765E+02   -0.90553E-06   -0.65407E-05  2408   0.315E-02
   1 F= -.42090728E+02 E0= -.42090728E+02  d E =-.420907E+02
 curvature:   0.00 expect dE= 0.000E+00 dE for cont linesearch  0.000E+00
 trial: gam= 0.00000 g(F)=  0.370E+00 g(S)=  0.000E+00 ort = 0.000E+00 (trialstep = 0.100E+01)
 search vector abs. value=  0.370E+00
 bond charge predicted
       N       E                     dE             d eps       ncg     rms          rms(c)
DAV:   1    -0.422748209335E+02   -0.18409E+00   -0.44386E+00  3196   0.101E+01    0.404E-01
RMM:   2    -0.422970123741E+02   -0.22191E-01   -0.22246E-01  2861   0.245E+00    0.290E-01
RMM:   3    -0.422974396803E+02   -0.42731E-03   -0.93778E-03  2939   0.534E-01    0.173E-01
RMM:   4    -0.422972121413E+02    0.22754E-03   -0.21780E-03  2862   0.212E-01    0.235E-02
RMM:   5    -0.422972034089E+02    0.87325E-05   -0.42726E-05  2136   0.371E-02
   2 F= -.42297203E+02 E0= -.42297203E+02  d E =-.206476E+00
 trial-energy change:   -0.206476  1 .order   -0.199889   -0.369684   -0.030094
 step:   1.0787(harm=  1.0886)  dis= 0.02941  next Energy=   -42.298391 (dE=-0.208E+00)
 bond charge predicted
       N       E                     dE             d eps       ncg     rms          rms(c)
DAV:   1    -0.422982787156E+02   -0.10666E-02   -0.33383E-02  3478   0.878E-01    0.332E-02
RMM:   2    -0.422984550294E+02   -0.17631E-03   -0.19637E-03  2859   0.228E-01    0.272E-02
RMM:   3    -0.422984374197E+02    0.17610E-04   -0.76810E-05  2281   0.489E-02    0.183E-02
RMM:   4    -0.422984146609E+02    0.22759E-04   -0.51131E-05  2559   0.280E-02    0.302E-03
RMM:   5    -0.422984157428E+02   -0.10819E-05   -0.11946E-06  1322   0.700E-03
   3 F= -.42298416E+02 E0= -.42298416E+02  d E =-.207688E+00
 curvature:  -0.54 expect dE=-0.395E-07 dE for cont linesearch -0.395E-07
 trial: gam= 0.00000 g(F)=  0.735E-07 g(S)=  0.000E+00 ort =-0.165E-03 (trialstep = 0.102E+01)
 search vector abs. value=  0.736E-07
 reached required accuracy - stopping structural energy minimisation
 running on    4 total cores
 distrk:  each k-point on    4 cores,    1 groups
 distr:  one band on    2 cores,    2 groups
 using from now: INCAR     
 vasp.5.4.1 05Feb16 (build Mar 17 2017 08:48:41) complex                        
  
 POSCAR found type information on POSCAR  Si
 POSCAR found :  1 types and       8 ions
 scaLAPACK will be used
 LDA part: xc-table for Pade appr. of Perdew
 POSCAR, INCAR and KPOINTS ok, starting setup
 WARNING: small aliasing (wrap around) errors must be expected
 FFT: planning ...
 WAVECAR not read
 entering main loop
       N       E                     dE             d eps       ncg     rms          rms(c)
DAV:   1     0.529470682596E+02    0.52947E+02   -0.91579E+03  2860   0.801E+02
DAV:   2    -0.384286268830E+02   -0.91376E+02   -0.85616E+02  3838   0.139E+02
DAV:   3    -0.426473928164E+02   -0.42188E+01   -0.41348E+01  3750   0.291E+01
DAV:   4    -0.427281511596E+02   -0.80758E-01   -0.80435E-01  3572   0.491E+00
DAV:   5    -0.427303233747E+02   -0.21722E-02   -0.21711E-02  3718   0.695E-01    0.638E+00
RMM:   6    -0.418684608953E+02    0.86186E+00   -0.77935E-01  2860   0.321E+00    0.369E+00
RMM:   7    -0.415640981383E+02    0.30436E+00   -0.13664E+00  2860   0.430E+00    0.485E-01
RMM:   8    -0.415628085343E+02    0.12896E-02   -0.40602E-02  2878   0.108E+00    0.111E-01
RMM:   9    -0.415626972794E+02    0.11125E-03   -0.46415E-03  2900   0.262E-01    0.419E-02
RMM:  10    -0.415628068033E+02   -0.10952E-03   -0.46691E-04  2905   0.112E-01    0.163E-02
RMM:  11    -0.415628370290E+02   -0.30226E-04   -0.82466E-05  2738   0.341E-02    0.529E-03
RMM:  12    -0.415628257702E+02    0.11259E-04   -0.60656E-06  1786   0.139E-02    0.918E-04
RMM:  13    -0.415628278332E+02   -0.20630E-05   -0.10261E-06  1279   0.569E-03
   1 F= -.41562828E+02 E0= -.41562828E+02  d E =-.415628E+02
 curvature:   0.00 expect dE= 0.000E+00 dE for cont linesearch  0.000E+00
 trial: gam= 0.00000 g(F)=  0.466E+00 g(S)=  0.000E+00 ort = 0.000E+00 (trialstep = 0.100E+01)
 search vector abs. value=  0.466E+00
 bond charge predicted
       N       E                     dE             d eps       ncg     rms          rms(c)
DAV:   1    -0.418164382663E+02   -0.25361E+00   -0.55887E+00  3166   0.114E+01    0.476E-01
RMM:   2    -0.418421496064E+02   -0.25711E-01   -0.26501E-01  2860   0.272E+00    0.338E-01
RMM:   3    -0.418415544752E+02    0.59513E-03   -0.10495E-02  2903   0.584E-01    0.151E-01
RMM:   4    -0.418412871559E+02    0.26732E-03   -0.10775E-03  2885   0.169E-01    0.289E-02
RMM:   5    -0.418413370326E+02   -0.49877E-04   -0.68176E-05  2298   0.425E-02    0.102E-02
RMM:   6    -0.418414090701E+02   -0.72038E-04   -0.44256E-05  2329   0.259E-02    0.280E-03
RMM:   7    -0.418413893220E+02    0.19748E-04   -0.30452E-06  1688   0.975E-03    0.622E-04
RMM:   8    -0.418413937058E+02   -0.43838E-05   -0.31972E-07   859   0.406E-03
   2 F= -.41841394E+02 E0= -.41841394E+02  d E =-.278566E+00
 trial-energy change:   -0.278566  1 .order   -0.265670   -0.466291   -0.065048
 step:   1.1330(harm=  1.1621)  dis= 0.03469  next Energy=   -41.845751 (dE=-0.283E+00)
 bond charge predicted
       N       E                     dE             d eps       ncg     rms          rms(c)
DAV:   1    -0.418490629802E+02   -0.76737E-02   -0.10483E-01  3334   0.156E+00    0.806E-02
RMM:   2    -0.418491970091E+02   -0.13403E-03   -0.50970E-03  2860   0.380E-01    0.555E-02
RMM:   3    -0.418487670655E+02    0.42994E-03   -0.45243E-04  2861   0.103E-01    0.806E-03
RMM:   4    -0.418487843628E+02   -0.17297E-04   -0.12569E-05  1719   0.185E-02    0.547E-03
RMM:   5    -0.418488102738E+02   -0.25911E-04   -0.69423E-06  1570   0.126E-02    0.150E-03
RMM:   6    -0.418488039074E+02    0.63664E-05   -0.10741E-06  1185   0.629E-03
   3 F= -.41848804E+02 E0= -.41848804E+02  d E =-.285976E+00
 curvature:  -0.56 expect dE=-0.419E-03 dE for cont linesearch -0.419E-03
 ZBRENT: extrapolating
 opt :   1.1865  next Energy=   -41.849302 (dE=-0.286E+00)
 bond charge predicted
       N       E                     dE             d eps       ncg     rms          rms(c)
DAV:   1    -0.418497971483E+02   -0.98687E-03   -0.16966E-02  3214   0.627E-01    0.430E-02
RMM:   2    -0.418497349430E+02    0.62205E-04   -0.77279E-04  2860   0.152E-01    0.278E-02
RMM:   3    -0.418498401494E+02   -0.10521E-03   -0.18941E-04  2859   0.561E-02    0.689E-03
RMM:   4    -0.418498084595E+02    0.31690E-04   -0.45294E-06  1585   0.118E-02    0.303E-03
RMM:   5    -0.418497878183E+02    0.20641E-04   -0.33631E-06  1534   0.813E-03    0.137E-03
RMM:   6    -0.418497950531E+02   -0.72348E-05   -0.15111E-07   536   0.415E-03
   4 F= -.41849795E+02 E0= -.41849795E+02  d E =-.286967E+00
 curvature:  -0.67 expect dE=-0.463E-04 dE for cont linesearch -0.463E-04
 trial: gam=-0.01205 g(F)=  0.693E-04 g(S)=  0.000E+00 ort = 0.569E-02 (trialstep = 0.104E+01)
 search vector abs. value=  0.104E-07
 reached required accuracy - stopping structural energy minimisation
 eV             Hartree            kJ/mol            kcal/mol
-42.6790240000  -1.5684242567  -4117.8988782090  -984.2015150970
End of Strain 4.0 in Mode 6

Start calculating Strain 5.0 in Mode 6
BaseVec:
     5.4538461128     0.2674462820     0.2674462820
     0.2674462587     5.4538456366     0.2674462587
     0.2674462820     0.2674462820     5.4538461128
Lattice Parameter:
    a         b         c      alpha   beta    gamma
5.466945  5.466945  5.466945  84.261  84.261  84.261
Volume : 161.089529722

mpirun -np 4 vasp_std
/home/opensoft/liaomingqing/Elastic3rd/VASP/Si/Elastic3rd/Si/Mode6/Strain5.0
Energy:
       eV             Hartree            kJ/mol            kcal/mol
-42.2984160000  -1.5544371791  -4081.1757971883  -975.4244875281
[-4.22984160e+01 -1.55443718e+00 -4.08117580e+03 -9.75424488e+02]
Energy:
       eV             Hartree            kJ/mol            kcal/mol
-42.2984160000  -1.5544371791  -4081.1757971883  -975.4244875281
End of Strain 5.0 in Mode 6

Start calculating Strain 6.0 in Mode 6
BaseVec:
     5.4482105401     0.3197611297     0.3197611297
     0.3197611017     5.4482100644     0.3197611017
     0.3197611297     0.3197611297     5.4482105401
Lattice Parameter:
    a         b         c      alpha   beta    gamma
5.466945  5.466945  5.466945  83.108  83.108  83.108
Volume : 160.113405929

mpirun -np 4 vasp_std
/home/opensoft/liaomingqing/Elastic3rd/VASP/Si/Elastic3rd/Si/Mode6/Strain6.0
Energy:
       eV             Hartree            kJ/mol            kcal/mol
-41.8497950000  -1.5379506714  -4037.8904607514  -965.0790431735
[-4.18497950e+01 -1.53795067e+00 -4.03789046e+03 -9.65079043e+02]
Energy:
       eV             Hartree            kJ/mol            kcal/mol
-41.8497950000  -1.5379506714  -4037.8904607514  -965.0790431735
End of Strain 6.0 in Mode 6

End of Mode 6


==================Post Processing========================
[[   77.27405409  -157.64948894]
 [  215.32835128  -754.38325552]
 [  222.11757959   -23.51708081]
 [  227.01509529  -677.5677167 ]
 [  416.79604242 -1881.71919186]
 [  446.10806222  -440.79143353]]
[11 12 44]
[152.79609426  62.53379601  74.30276215]
[111 112 123 144 155 456]
[-945.89693366 -439.08427763  -91.51789213   67.06620407 -259.95911388
  -55.09892919]
========================!!!END!!!=========================
