 Job started on host YOS-20180822FRE
 at Fri May  3 02:24:43 2019

 +-------------------------------------------------+
 |                                                 |
 |      CCC   AA    SSS  TTTTT  EEEEE  PPPP        |
 |     C     A  A  S       T    E      P   P       |
 |     C     AAAA   SS     T    EEE    PPPP        |
 |     C     A  A     S    T    E      P           |
 |      CCC  A  A  SSS     T    EEEEE  P           |
 |                                                 |
 +-------------------------------------------------+
 |                                                 |
 | Materials Studio CASTEP version 2017 R2         |
 | Ab Initio Total Energy Program                  |
 |                                                 |
 | Authors:                                        |
 | M. Segall, M. Probert, C. Pickard, P. Hasnip,   |
 | S. Clark, K. Refson, J. R. Yates, M. Payne      |
 |                                                 |
 | Contributors:                                   |
 | P. Lindan, P. Haynes, J. White, V. Milman,      |
 | N. Govind, M. Gibson, P. Tulip, V. Cocula,      |
 | B. Montanari, D. Quigley, M. Glover,            |
 | L. Bernasconi, A. Perlov, M. Plummer,           |
 | E. McNellis, J. Meyer, J. Gale, D. Jochym       |
 | J. Aarons, B. Walker, R. Gillen, D. Jones       |
 | T. Green, I. J. Bush, C. J. Armstrong,          |
 | E. J. Higgins, E. L. Brown, M. S. McFly,        |
 | J. Wilkins, B-C. Shih, P. J. P. Byrne           |
 |                                                 |
 | Copyright (c) 2000 - 2016                       |
 |                                                 |
 | Please cite                                     |
 |                                                 |
 |     "First principles methods using CASTEP"     |
 |                                                 |
 |         Zeitschrift fuer Kristallographie       |
 |           220(5-6) pp. 567-570 (2005)           |
 |                                                 |
 | S. J. Clark, M. D. Segall, C. J. Pickard,       |
 | P. J. Hasnip, M. J. Probert, K. Refson,         |
 | M. C. Payne                                     |
 |                                                 |
 |       in all publications arising from          |
 |              your use of CASTEP                 |
 |                                                 |
 +-------------------------------------------------+
 
 
 This version was compiled for i686-windows-msvc2013 on Dec 07 2016
 Code version: 7217
 Intel(R) Math Kernel Library Version 11.1.2 
 Fundamental constants values: CODATA 2010
 
License checkout of MS_castep successful
 
 
 Pseudo atomic calculation performed for Si 3s2 3p2
 
 Converged in 17 iterations to a total energy of -101.9015 eV
 
 Calculation parallelised over 8 processes.
 Data is distributed by k-point(8-way)

 ************************************ Title ************************************
 CASTEP calculation from Materials Studio

 ***************************** General Parameters ******************************
  
 output verbosity                               : normal  (1)
 write checkpoint data to                       : Si.check
 type of calculation                            : geometry optimization
 stress calculation                             : on
 density difference calculation                 : off
 electron localisation func (ELF) calculation   : off
 Hirshfeld analysis                             : off
 unlimited duration calculation
 timing information                             : on
 memory usage estimate                          : on
 write final potential to formatted file        : off
 write final density to formatted file          : off
 write BibTeX reference list                    : on
 write OTFG pseudopotential files               : on
 write electrostatic potential file             : on
 write bands file                               : on
 checkpoint writing                             : both castep_bin and check files
  
 output         length unit                     : A
 output           mass unit                     : amu
 output           time unit                     : ps
 output         charge unit                     : e
 output           spin unit                     : hbar/2
 output         energy unit                     : eV
 output          force unit                     : eV/A
 output       velocity unit                     : A/ps
 output       pressure unit                     : GPa
 output     inv_length unit                     : 1/A
 output      frequency unit                     : cm-1
 output force constant unit                     : eV/A**2
 output         volume unit                     : A**3
 output   IR intensity unit                     : (D/A)**2/amu
 output         dipole unit                     : D
 output         efield unit                     : eV/A/e
 output        entropy unit                     : J/mol/K
  
 wavefunctions paging                           : none
 random number generator seed                   : randomised (22444999)
 data distribution                              : optimal for this architecture
 optimization strategy                          : balance speed and memory

 *********************** Exchange-Correlation Parameters ***********************
  
 using functional                               : Perdew Burke Ernzerhof
 relativistic treatment                         : Koelling-Harmon
 DFT+D: Semi-empirical dispersion correction    : off

 ************************* Pseudopotential Parameters **************************
  
 pseudopotential representation                 : reciprocal space
 <beta|phi> representation                      : reciprocal space
 spin-orbit coupling                            : off

 **************************** Basis Set Parameters *****************************
  
 plane wave basis set cut-off                   :   320.0000   eV
 size of standard grid                          :     2.0000
 size of   fine   grid                          :     3.0000
 size of   fine   gmax                          :    27.4938   1/A
 largest prime factor in FFT                    :          5
 finite basis set correction                    : automatic
 number of sample energies                      :          3
           sample  spacing                      :     5.0000   eV

 **************************** Electronic Parameters ****************************
  
 number of  electrons                           :  32.00    
 net charge of system                           :  0.000    
 treating system as non-spin-polarized
 number of bands                                :         16

 ********************* Electronic Minimization Parameters **********************
  
 Method: Treating system as non-metallic,
         and number of  SD  steps               :          1
         and number of  CG  steps               :          4
  
 total energy / atom convergence tol.           : 0.5000E-06   eV
 eigen-energy convergence tolerance             : 0.2500E-06   eV
 max force / atom convergence tol.              : ignored
 convergence tolerance window                   :          3   cycles
 max. number of SCF cycles                      :        100
 periodic dipole correction                     : NONE

 ************************** Density Mixing Parameters **************************
  
 density-mixing scheme                          : Pulay
 max. length of mixing history                  :         20
 charge density mixing amplitude                : 0.5000    
 cut-off energy for mixing                      :  320.0       eV
 charge density mixing g-vector                 :  1.500       1/A

 ********************** Geometry Optimization Parameters ***********************
  
 optimization method                            : BFGS
 variable cell method                           : fixed basis quality
 max. number of steps                           :        100
 estimated bulk modulus                         :  500.0       GPa
 estimated <frequency>                          :  1668.       cm-1
 geom line minimiser                            : on
 with line minimiser tolerance                  :     0.4000
 total energy convergence tolerance             : 0.5000E-05   eV/atom
        max ionic |force| tolerance             : 0.1000E-01   eV/A
 max ionic |displacement| tolerance             : 0.5000E-03   A
   max |stress component| tolerance             : 0.2000E-01   GPa
 convergence tolerance window                   :          2   steps
 backup results every                           :          5   steps
 write geom trajectory file                     : on

 *******************************************************************************
  
 
                           -------------------------------
                                      Unit Cell
                           -------------------------------
        Real Lattice(A)                      Reciprocal Lattice(1/A)
   5.0084921   0.0000000  -0.0000000        1.2545064   0.0000000   0.0000000
   0.0000000   5.0084920  -0.0000000       -0.0000000   1.2545064   0.0000000
   0.0000000   0.0000000   5.0084921        0.0000000   0.0000000   1.2545064
 
                       Lattice parameters(A)       Cell Angles
                    a =    5.008492          alpha =   90.000000
                    b =    5.008492          beta  =   90.000000
                    c =    5.008492          gamma =   90.000000
 
                       Current cell volume =  125.637988       A**3
                                   density =    1.788344   AMU/A**3
                                           =    2.969616     g/cm^3
 
                           -------------------------------
                                     Cell Contents
                           -------------------------------
                         Total number of ions in cell =    8
                      Total number of species in cell =    1
                        Max number of any one species =    8
 
            xxxxxxxxxxxxxxxxxxxxxxxxxxxxxxxxxxxxxxxxxxxxxxxxxxxxxxxxxxxx
            x  Element    Atom        Fractional coordinates of atoms  x
            x            Number           u          v          w      x
            x----------------------------------------------------------x
            x  Si           1         0.000000  -0.000000  -0.000000   x 
            x  Si           2         0.000000   0.500000   0.500000   x 
            x  Si           3         0.500000   0.000000   0.500000   x 
            x  Si           4         0.500000   0.500000  -0.000000   x 
            x  Si           5         0.750000   0.250000   0.750000   x 
            x  Si           6         0.250000   0.250000   0.250000   x 
            x  Si           7         0.250000   0.750000   0.750000   x 
            x  Si           8         0.750000   0.750000   0.250000   x 
            xxxxxxxxxxxxxxxxxxxxxxxxxxxxxxxxxxxxxxxxxxxxxxxxxxxxxxxxxxxx
 
 
                         No user defined ionic velocities
 
                           -------------------------------
                                   Details of Species
                           -------------------------------
 
                               Mass of species in AMU
                                    Si   28.0849991
 
                          Electric Quadrupole Moment (Barn)
                                    Si    1.0000000 No Isotope Defined
 
                          Files used for pseudopotentials:
                                    Si D:\PROGRA~1\BIOVIA\MATERI~1.2\share\Resources\Quantum\Castep\Potentials\Si_00PBE.usp
 
                           -------------------------------
                              k-Points For BZ Sampling
                           -------------------------------
                       MP grid size for SCF calculation is  8  8  8
                            with an offset of   0.000  0.000  0.000
                       Number of kpoints used =           256
 
                           -------------------------------
                               Symmetry and Constraints
                           -------------------------------
 
                      Cell is a supercell containing 4 primitive cells
                      Maximum deviation from symmetry =  0.00000         ANG
 
                      Number of symmetry operations   =           1
         There are no ionic constraints specified or generated for this cell
                      Point group of crystal =     1: C1, 1, 1
                      Space group of crystal =   227: Fd-3m, F 4d 2 3 -1d
 
             Set iprint > 1 for details on symmetry rotations/translations
 
                         Centre of mass is NOT constrained
 
                         Number of cell constraints= 6
                         Cell constraints are:  0 0 0 0 0 0
 
                         External pressure/stress (GPa)
                          0.00000   0.00000   0.00000
                                    0.00000   0.00000
                                              0.00000
  
+---------------- MEMORY AND SCRATCH DISK ESTIMATES PER PROCESS --------------+
|                                                     Memory          Disk    |
| Baseline code, static data and system overhead        0.0 MB         0.0 MB |
| BLAS internal memory storage                          0.0 MB         0.0 MB |
| Model and support data                               42.3 MB        25.0 MB |
| Electronic energy minimisation requirements          37.2 MB         0.0 MB |
| Force calculation requirements                       11.7 MB         0.0 MB |
| Stress calculation requirements                      14.4 MB         0.0 MB |
|                                               ----------------------------- |
| Approx. total storage required per process           79.5 MB        25.0 MB |
|                                                                             |
| Requirements will fluctuate during execution and may exceed these estimates |
+-----------------------------------------------------------------------------+
Calculating finite basis set correction with  3 cut-off energies.
Calculating total energy with cut-off of  310.000 eV.
------------------------------------------------------------------------ <-- SCF
SCF loop      Energy                           Energy gain       Timer   <-- SCF
                                               per atom          (sec)   <-- SCF
------------------------------------------------------------------------ <-- SCF
Initial   3.83654995E+002                                          1.58  <-- SCF
      1  -7.50086990E+002                    1.41717748E+002       7.35  <-- SCF
      2  -8.53321600E+002                    1.29043262E+001      11.67  <-- SCF
      3  -8.55865792E+002                    3.18024112E-001      15.43  <-- SCF
      4  -8.55212181E+002                   -8.17014752E-002      20.89  <-- SCF
      5  -8.54931428E+002                   -3.50941169E-002      25.79  <-- SCF
      6  -8.54943580E+002                    1.51899870E-003      31.68  <-- SCF
      7  -8.54943815E+002                    2.94015473E-005      37.19  <-- SCF
      8  -8.54943855E+002                    5.05230959E-006      41.12  <-- SCF
      9  -8.54943856E+002                    7.14594137E-008      44.52  <-- SCF
     10  -8.54943856E+002                    2.30689678E-008      47.92  <-- SCF
------------------------------------------------------------------------ <-- SCF
 
Final energy =  -854.9438560838     eV
(energy not corrected for finite basis set)
 
Calculating total energy with cut-off of  315.000 eV.
------------------------------------------------------------------------ <-- SCF
SCF loop      Energy                           Energy gain       Timer   <-- SCF
                                               per atom          (sec)   <-- SCF
------------------------------------------------------------------------ <-- SCF
Initial  -8.54943856E+002                                         49.56  <-- SCF
      1  -8.54945735E+002                    2.34888076E-004      54.04  <-- SCF
      2  -8.54945737E+002                    1.89121595E-007      57.44  <-- SCF
      3  -8.54945738E+002                    1.90050949E-007      60.82  <-- SCF
      4  -8.54945738E+002                    2.95066397E-008      64.24  <-- SCF
------------------------------------------------------------------------ <-- SCF
 
Final energy =  -854.9457384623     eV
(energy not corrected for finite basis set)
 
Calculating total energy with cut-off of  320.000 eV.
------------------------------------------------------------------------ <-- SCF
SCF loop      Energy                           Energy gain       Timer   <-- SCF
                                               per atom          (sec)   <-- SCF
------------------------------------------------------------------------ <-- SCF
Initial  -8.54945738E+002                                         65.89  <-- SCF
      1  -8.54947683E+002                    2.43093835E-004      70.48  <-- SCF
      2  -8.54947685E+002                    1.86850946E-007      73.98  <-- SCF
      3  -8.54947686E+002                    2.04365906E-007      77.41  <-- SCF
      4  -8.54947687E+002                    2.39121728E-008      80.89  <-- SCF
------------------------------------------------------------------------ <-- SCF
 
Final energy =  -854.9476865342     eV
(energy not corrected for finite basis set)
 
 For future reference: finite basis dEtot/dlog(Ecut) =      -0.121623eV
 Total energy corrected for finite basis set =    -854.947694 eV
 
+---------------- MEMORY AND SCRATCH DISK ESTIMATES PER PROCESS --------------+
|                                                     Memory          Disk    |
| Model and support data                               47.2 MB        25.0 MB |
| Electronic energy minimisation requirements          37.2 MB         0.0 MB |
| Geometry minimisation requirements                   52.3 MB         0.0 MB |
|                                               ----------------------------- |
| Approx. total storage required per process          136.6 MB        25.0 MB |
|                                                                             |
| Requirements will fluctuate during execution and may exceed these estimates |
+-----------------------------------------------------------------------------+
 
 
 ************************************** Forces **************************************
 *                                                                                  *
 *                           Cartesian components (eV/A)                            *
 * -------------------------------------------------------------------------------- *
 *                         x                    y                    z              *
 *                                                                                  *
 * Si              1      0.00001             -0.00000              0.00001         *
 * Si              2     -0.00001             -0.00000              0.00000         *
 * Si              3     -0.00000             -0.00000              0.00000         *
 * Si              4     -0.00000              0.00001             -0.00001         *
 * Si              5      0.02769             -0.02770              0.02770         *
 * Si              6     -0.02768             -0.02768             -0.02769         *
 * Si              7     -0.02769              0.02769              0.02768         *
 * Si              8      0.02769              0.02769             -0.02769         *
 *                                                                                  *
 ************************************************************************************
 BFGS: finished iteration     0 with enthalpy= -8.54947687E+002 eV
  
 +-----------+-----------------+-----------------+------------+-----+ <-- BFGS
 | Parameter |      value      |    tolerance    |    units   | OK? | <-- BFGS
 +-----------+-----------------+-----------------+------------+-----+ <-- BFGS
 |  dE/ion   |   0.000000E+000 |   5.000000E-006 |         eV | No  | <-- BFGS
 |  |F|max   |   4.796856E-002 |   1.000000E-002 |       eV/A | No  | <-- BFGS
 |  |dR|max  |   0.000000E+000 |   5.000000E-004 |          A | No  | <-- BFGS
 +-----------+-----------------+-----------------+------------+-----+ <-- BFGS
  

================================================================================
 Starting BFGS iteration          1 ...
================================================================================
  
 +------------+-------------+-------------+-----------------+ <-- min BFGS
 |    Step    |   lambda    |   F.delta'  |    enthalpy     | <-- min BFGS
 +------------+-------------+-------------+-----------------+ <-- min BFGS
 |  previous  |    0.000000 |    0.017654 |     -854.947687 | <-- min BFGS
 +------------+-------------+-------------+-----------------+ <-- min BFGS
  

--------------------------------------------------------------------------------
 BFGS: starting iteration         1 with trial guess (lambda=  1.000000)
--------------------------------------------------------------------------------
 
                           -------------------------------
                                     Cell Contents
                           -------------------------------
 
            xxxxxxxxxxxxxxxxxxxxxxxxxxxxxxxxxxxxxxxxxxxxxxxxxxxxxxxxxxxxxxxxx
            x  Element         Atom        Fractional coordinates of atoms  x
            x                 Number           u          v          w      x
            x---------------------------------------------------------------x
            x  Si                1         0.000000  -0.000000   0.000000   x
            x  Si                2        -0.000000   0.500000   0.500000   x
            x  Si                3         0.500000   0.000000   0.500000   x
            x  Si                4         0.500000   0.500000  -0.000000   x
            x  Si                5         0.750019   0.249981   0.750019   x
            x  Si                6         0.249981   0.249981   0.249981   x
            x  Si                7         0.249981   0.750019   0.750019   x
            x  Si                8         0.750019   0.750019   0.249981   x
            xxxxxxxxxxxxxxxxxxxxxxxxxxxxxxxxxxxxxxxxxxxxxxxxxxxxxxxxxxxxxxxxx
 
 
------------------------------------------------------------------------ <-- SCF
SCF loop      Energy                           Energy gain       Timer   <-- SCF
                                               per atom          (sec)   <-- SCF
------------------------------------------------------------------------ <-- SCF
Initial  -8.54947747E+002                                         84.04  <-- SCF
      1  -8.54947717E+002                   -3.85314249E-006      87.06  <-- SCF
      2  -8.54947717E+002                    5.36537310E-008      90.54  <-- SCF
      3  -8.54947717E+002                    1.39424705E-008      94.02  <-- SCF
      4  -8.54947717E+002                    1.43974559E-009      97.49  <-- SCF
------------------------------------------------------------------------ <-- SCF
 
Final energy =  -854.9477170783     eV
(energy not corrected for finite basis set)
 
 
 ************************************** Forces **************************************
 *                                                                                  *
 *                           Cartesian components (eV/A)                            *
 * -------------------------------------------------------------------------------- *
 *                         x                    y                    z              *
 *                                                                                  *
 * Si              1      0.00001             -0.00000              0.00001         *
 * Si              2     -0.00001             -0.00000              0.00000         *
 * Si              3     -0.00000             -0.00000              0.00000         *
 * Si              4      0.00000              0.00001             -0.00001         *
 * Si              5      0.02492             -0.02492              0.02493         *
 * Si              6     -0.02491             -0.02491             -0.02492         *
 * Si              7     -0.02492              0.02491              0.02491         *
 * Si              8      0.02491              0.02491             -0.02492         *
 *                                                                                  *
 ************************************************************************************
  
 +------------+-------------+-------------+-----------------+ <-- min BFGS
 |    Step    |   lambda    |   F.delta'  |    enthalpy     | <-- min BFGS
 +------------+-------------+-------------+-----------------+ <-- min BFGS
 |  previous  |    0.000000 |    0.017654 |     -854.947687 | <-- min BFGS
 | trial step |    1.000000 |    0.015887 |     -854.947717 | <-- min BFGS
 +------------+-------------+-------------+-----------------+ <-- min BFGS
  

--------------------------------------------------------------------------------
 BFGS: improving iteration         1 with line minimization (lambda=  9.988818)
--------------------------------------------------------------------------------
 
                           -------------------------------
                                     Cell Contents
                           -------------------------------
 
            xxxxxxxxxxxxxxxxxxxxxxxxxxxxxxxxxxxxxxxxxxxxxxxxxxxxxxxxxxxxxxxxx
            x  Element         Atom        Fractional coordinates of atoms  x
            x                 Number           u          v          w      x
            x---------------------------------------------------------------x
            x  Si                1         0.000000  -0.000000   0.000000   x
            x  Si                2        -0.000000   0.500000   0.500000   x
            x  Si                3         0.500000  -0.000000   0.500000   x
            x  Si                4         0.500000   0.500000  -0.000000   x
            x  Si                5         0.750192   0.249808   0.750192   x
            x  Si                6         0.249808   0.249808   0.249808   x
            x  Si                7         0.249808   0.750192   0.750192   x
            x  Si                8         0.750192   0.750192   0.249808   x
            xxxxxxxxxxxxxxxxxxxxxxxxxxxxxxxxxxxxxxxxxxxxxxxxxxxxxxxxxxxxxxxxx
 
 
------------------------------------------------------------------------ <-- SCF
SCF loop      Energy                           Energy gain       Timer   <-- SCF
                                               per atom          (sec)   <-- SCF
------------------------------------------------------------------------ <-- SCF
Initial  -8.54947948E+002                                        100.61  <-- SCF
      1  -8.54947850E+002                   -1.22011433E-005     105.05  <-- SCF
      2  -8.54947857E+002                    8.19334970E-007     108.87  <-- SCF
      3  -8.54947854E+002                   -2.91110003E-007     112.31  <-- SCF
      4  -8.54947855E+002                    7.83883238E-008     115.77  <-- SCF
------------------------------------------------------------------------ <-- SCF
 
Final energy =  -854.9478549987     eV
(energy not corrected for finite basis set)
 
 
 ************************************** Forces **************************************
 *                                                                                  *
 *                           Cartesian components (eV/A)                            *
 * -------------------------------------------------------------------------------- *
 *                         x                    y                    z              *
 *                                                                                  *
 * Si              1     -0.00000             -0.00000              0.00000         *
 * Si              2      0.00000             -0.00000             -0.00000         *
 * Si              3      0.00000              0.00000             -0.00000         *
 * Si              4      0.00000             -0.00000              0.00000         *
 * Si              5      0.00177             -0.00177              0.00177         *
 * Si              6     -0.00177             -0.00177             -0.00177         *
 * Si              7     -0.00178              0.00177              0.00177         *
 * Si              8      0.00177              0.00177             -0.00177         *
 *                                                                                  *
 ************************************************************************************
  
 +------------+-------------+-------------+-----------------+ <-- min BFGS
 |    Step    |   lambda    |   F.delta'  |    enthalpy     | <-- min BFGS
 +------------+-------------+-------------+-----------------+ <-- min BFGS
 |  previous  |    0.000000 |    0.017654 |     -854.947687 | <-- min BFGS
 | trial step |    1.000000 |    0.015887 |     -854.947717 | <-- min BFGS
 |  line step |    9.988818 |    0.001129 |     -854.947855 | <-- min BFGS
 +------------+-------------+-------------+-----------------+ <-- min BFGS
  
 BFGS: finished iteration     1 with enthalpy= -8.54947855E+002 eV
  
 +-----------+-----------------+-----------------+------------+-----+ <-- BFGS
 | Parameter |      value      |    tolerance    |    units   | OK? | <-- BFGS
 +-----------+-----------------+-----------------+------------+-----+ <-- BFGS
 |  dE/ion   |   2.105807E-005 |   5.000000E-006 |         eV | No  | <-- BFGS
 |  |F|max   |   3.070148E-003 |   1.000000E-002 |       eV/A | Yes | <-- BFGS
 |  |dR|max  |   1.667854E-003 |   5.000000E-004 |          A | No  | <-- BFGS
 +-----------+-----------------+-----------------+------------+-----+ <-- BFGS
  

================================================================================
 Starting BFGS iteration          2 ...
================================================================================
  
 +------------+-------------+-------------+-----------------+ <-- min BFGS
 |    Step    |   lambda    |   F.delta'  |    enthalpy     | <-- min BFGS
 +------------+-------------+-------------+-----------------+ <-- min BFGS
 |  previous  |    0.000000 |    0.001129 |     -854.947855 | <-- min BFGS
 +------------+-------------+-------------+-----------------+ <-- min BFGS
  

--------------------------------------------------------------------------------
 BFGS: starting iteration         2 with trial guess (lambda=  1.000000)
--------------------------------------------------------------------------------
 
                           -------------------------------
                                     Cell Contents
                           -------------------------------
 
            xxxxxxxxxxxxxxxxxxxxxxxxxxxxxxxxxxxxxxxxxxxxxxxxxxxxxxxxxxxxxxxxx
            x  Element         Atom        Fractional coordinates of atoms  x
            x                 Number           u          v          w      x
            x---------------------------------------------------------------x
            x  Si                1         0.000000  -0.000000   0.000000   x
            x  Si                2        -0.000000   0.500000   0.500000   x
            x  Si                3         0.500000  -0.000000   0.500000   x
            x  Si                4         0.500000   0.500000  -0.000000   x
            x  Si                5         0.750205   0.249795   0.750205   x
            x  Si                6         0.249795   0.249795   0.249795   x
            x  Si                7         0.249795   0.750205   0.750205   x
            x  Si                8         0.750205   0.750205   0.249795   x
            xxxxxxxxxxxxxxxxxxxxxxxxxxxxxxxxxxxxxxxxxxxxxxxxxxxxxxxxxxxxxxxxx
 
 
------------------------------------------------------------------------ <-- SCF
SCF loop      Energy                           Energy gain       Timer   <-- SCF
                                               per atom          (sec)   <-- SCF
------------------------------------------------------------------------ <-- SCF
Initial  -8.54947382E+002                                        118.92  <-- SCF
      1  -8.54947855E+002                    5.91423065E-005     121.96  <-- SCF
      2  -8.54947855E+002                    3.64407339E-008     125.42  <-- SCF
      3  -8.54947856E+002                    1.87854280E-008     128.87  <-- SCF
      4  -8.54947856E+002                    5.67342563E-009     132.26  <-- SCF
------------------------------------------------------------------------ <-- SCF
 
Final energy =  -854.9478556465     eV
(energy not corrected for finite basis set)
 
 
 ************************************** Forces **************************************
 *                                                                                  *
 *                           Cartesian components (eV/A)                            *
 * -------------------------------------------------------------------------------- *
 *                         x                    y                    z              *
 *                                                                                  *
 * Si              1     -0.00000             -0.00000              0.00000         *
 * Si              2      0.00000             -0.00000             -0.00000         *
 * Si              3      0.00000              0.00000             -0.00000         *
 * Si              4      0.00000             -0.00000              0.00000         *
 * Si              5     -0.00044              0.00044             -0.00044         *
 * Si              6      0.00044              0.00044              0.00044         *
 * Si              7      0.00043             -0.00044             -0.00044         *
 * Si              8     -0.00044             -0.00044              0.00044         *
 *                                                                                  *
 ************************************************************************************
  
 +------------+-------------+-------------+-----------------+ <-- min BFGS
 |    Step    |   lambda    |   F.delta'  |    enthalpy     | <-- min BFGS
 +------------+-------------+-------------+-----------------+ <-- min BFGS
 |  previous  |    0.000000 |    0.001129 |     -854.947855 | <-- min BFGS
 | trial step |    1.000000 |   -0.000280 |     -854.947856 | <-- min BFGS
 +------------+-------------+-------------+-----------------+ <-- min BFGS
  
 BFGS: finished iteration     2 with enthalpy= -8.54947856E+002 eV
  
 +-----------+-----------------+-----------------+------------+-----+ <-- BFGS
 | Parameter |      value      |    tolerance    |    units   | OK? | <-- BFGS
 +-----------+-----------------+-----------------+------------+-----+ <-- BFGS
 |  dE/ion   |   8.097726E-008 |   5.000000E-006 |         eV | Yes | <-- BFGS
 |  |F|max   |   7.620022E-004 |   1.000000E-002 |       eV/A | Yes | <-- BFGS
 |  |dR|max  |   1.139956E-004 |   5.000000E-004 |          A | Yes | <-- BFGS
 +-----------+-----------------+-----------------+------------+-----+ <-- BFGS
  
 BFGS: Geometry optimization completed successfully.

================================================================================
 BFGS: Final Configuration:
================================================================================
 
                           -------------------------------
                                     Cell Contents
                           -------------------------------
 
            xxxxxxxxxxxxxxxxxxxxxxxxxxxxxxxxxxxxxxxxxxxxxxxxxxxxxxxxxxxxxxxxx
            x  Element         Atom        Fractional coordinates of atoms  x
            x                 Number           u          v          w      x
            x---------------------------------------------------------------x
            x  Si                1         0.000000  -0.000000   0.000000   x
            x  Si                2        -0.000000   0.500000   0.500000   x
            x  Si                3         0.500000  -0.000000   0.500000   x
            x  Si                4         0.500000   0.500000  -0.000000   x
            x  Si                5         0.750205   0.249795   0.750205   x
            x  Si                6         0.249795   0.249795   0.249795   x
            x  Si                7         0.249795   0.750205   0.750205   x
            x  Si                8         0.750205   0.750205   0.249795   x
            xxxxxxxxxxxxxxxxxxxxxxxxxxxxxxxxxxxxxxxxxxxxxxxxxxxxxxxxxxxxxxxxx
 
 
 BFGS: Final Enthalpy     = -8.54947856E+002 eV
 BFGS: Final <frequency>  =     536.29152 cm-1
 
 ************************************** Forces **************************************
 *                                                                                  *
 *                           Cartesian components (eV/A)                            *
 * -------------------------------------------------------------------------------- *
 *                         x                    y                    z              *
 *                                                                                  *
 * Si              1     -0.00000             -0.00000              0.00000         *
 * Si              2      0.00000             -0.00000             -0.00000         *
 * Si              3      0.00000              0.00000             -0.00000         *
 * Si              4      0.00000             -0.00000              0.00000         *
 * Si              5     -0.00044              0.00044             -0.00044         *
 * Si              6      0.00044              0.00044              0.00044         *
 * Si              7      0.00043             -0.00044             -0.00044         *
 * Si              8     -0.00044             -0.00044              0.00044         *
 *                                                                                  *
 ************************************************************************************
 
 ***************** Stress Tensor *****************
 *                                               *
 *          Cartesian components (GPa)           *
 * --------------------------------------------- *
 *             x             y             z     *
 *                                               *
 *  x    -39.329771     -0.000001     -0.000006  *
 *  y     -0.000001    -39.329771      0.000004  *
 *  z     -0.000006      0.000004    -39.329770  *
 *                                               *
 *  Pressure:   39.3298                          *
 *                                               *
 *************************************************

Writing analysis data to Si.castep_bin

Writing model to Si.check
 
 A BibTeX formatted list of references used in this run has been written to 
 Si.bib
 
Initialisation time =      0.61 s
Calculation time    =    140.73 s
Finalisation time   =      0.50 s
Total time          =    141.84 s
  
Overall parallel efficiency rating: Excellent (98%)                             
  
Data was distributed by:-
k-point (8-way); efficiency rating: Excellent (99%)                             
  
Parallel notes:
1) Calculation only took 141.5 s, so efficiency estimates may be inaccurate.    
