 Job started on host YOS-20180822FRE
 at Fri May  3 02:27:09 2019

 +-------------------------------------------------+
 |                                                 |
 |      CCC   AA    SSS  TTTTT  EEEEE  PPPP        |
 |     C     A  A  S       T    E      P   P       |
 |     C     AAAA   SS     T    EEE    PPPP        |
 |     C     A  A     S    T    E      P           |
 |      CCC  A  A  SSS     T    EEEEE  P           |
 |                                                 |
 +-------------------------------------------------+
 |                                                 |
 | Materials Studio CASTEP version 2017 R2         |
 | Ab Initio Total Energy Program                  |
 |                                                 |
 | Authors:                                        |
 | M. Segall, M. Probert, C. Pickard, P. Hasnip,   |
 | S. Clark, K. Refson, J. R. Yates, M. Payne      |
 |                                                 |
 | Contributors:                                   |
 | P. Lindan, P. Haynes, J. White, V. Milman,      |
 | N. Govind, M. Gibson, P. Tulip, V. Cocula,      |
 | B. Montanari, D. Quigley, M. Glover,            |
 | L. Bernasconi, A. Perlov, M. Plummer,           |
 | E. McNellis, J. Meyer, J. Gale, D. Jochym       |
 | J. Aarons, B. Walker, R. Gillen, D. Jones       |
 | T. Green, I. J. Bush, C. J. Armstrong,          |
 | E. J. Higgins, E. L. Brown, M. S. McFly,        |
 | J. Wilkins, B-C. Shih, P. J. P. Byrne           |
 |                                                 |
 | Copyright (c) 2000 - 2016                       |
 |                                                 |
 | Please cite                                     |
 |                                                 |
 |     "First principles methods using CASTEP"     |
 |                                                 |
 |         Zeitschrift fuer Kristallographie       |
 |           220(5-6) pp. 567-570 (2005)           |
 |                                                 |
 | S. J. Clark, M. D. Segall, C. J. Pickard,       |
 | P. J. Hasnip, M. J. Probert, K. Refson,         |
 | M. C. Payne                                     |
 |                                                 |
 |       in all publications arising from          |
 |              your use of CASTEP                 |
 |                                                 |
 +-------------------------------------------------+
 
 
 This version was compiled for i686-windows-msvc2013 on Dec 07 2016
 Code version: 7217
 Intel(R) Math Kernel Library Version 11.1.2 
 Fundamental constants values: CODATA 2010
 
License checkout of MS_castep successful
 
 
 Pseudo atomic calculation performed for Si 3s2 3p2
 
 Converged in 17 iterations to a total energy of -101.9015 eV
 
 Calculation parallelised over 8 processes.
 Data is distributed by k-point(8-way)

 ************************************ Title ************************************
 CASTEP calculation from Materials Studio

 ***************************** General Parameters ******************************
  
 output verbosity                               : normal  (1)
 write checkpoint data to                       : Si.check
 type of calculation                            : geometry optimization
 stress calculation                             : on
 density difference calculation                 : off
 electron localisation func (ELF) calculation   : off
 Hirshfeld analysis                             : off
 unlimited duration calculation
 timing information                             : on
 memory usage estimate                          : on
 write final potential to formatted file        : off
 write final density to formatted file          : off
 write BibTeX reference list                    : on
 write OTFG pseudopotential files               : on
 write electrostatic potential file             : on
 write bands file                               : on
 checkpoint writing                             : both castep_bin and check files
  
 output         length unit                     : A
 output           mass unit                     : amu
 output           time unit                     : ps
 output         charge unit                     : e
 output           spin unit                     : hbar/2
 output         energy unit                     : eV
 output          force unit                     : eV/A
 output       velocity unit                     : A/ps
 output       pressure unit                     : GPa
 output     inv_length unit                     : 1/A
 output      frequency unit                     : cm-1
 output force constant unit                     : eV/A**2
 output         volume unit                     : A**3
 output   IR intensity unit                     : (D/A)**2/amu
 output         dipole unit                     : D
 output         efield unit                     : eV/A/e
 output        entropy unit                     : J/mol/K
  
 wavefunctions paging                           : none
 random number generator seed                   : randomised (22710834)
 data distribution                              : optimal for this architecture
 optimization strategy                          : balance speed and memory

 *********************** Exchange-Correlation Parameters ***********************
  
 using functional                               : Perdew Burke Ernzerhof
 relativistic treatment                         : Koelling-Harmon
 DFT+D: Semi-empirical dispersion correction    : off

 ************************* Pseudopotential Parameters **************************
  
 pseudopotential representation                 : reciprocal space
 <beta|phi> representation                      : reciprocal space
 spin-orbit coupling                            : off

 **************************** Basis Set Parameters *****************************
  
 plane wave basis set cut-off                   :   320.0000   eV
 size of standard grid                          :     2.0000
 size of   fine   grid                          :     3.0000
 size of   fine   gmax                          :    27.4938   1/A
 largest prime factor in FFT                    :          5
 finite basis set correction                    : automatic
 number of sample energies                      :          3
           sample  spacing                      :     5.0000   eV

 **************************** Electronic Parameters ****************************
  
 number of  electrons                           :  32.00    
 net charge of system                           :  0.000    
 treating system as non-spin-polarized
 number of bands                                :         16

 ********************* Electronic Minimization Parameters **********************
  
 Method: Treating system as non-metallic,
         and number of  SD  steps               :          1
         and number of  CG  steps               :          4
  
 total energy / atom convergence tol.           : 0.5000E-06   eV
 eigen-energy convergence tolerance             : 0.2500E-06   eV
 max force / atom convergence tol.              : ignored
 convergence tolerance window                   :          3   cycles
 max. number of SCF cycles                      :        100
 periodic dipole correction                     : NONE

 ************************** Density Mixing Parameters **************************
  
 density-mixing scheme                          : Pulay
 max. length of mixing history                  :         20
 charge density mixing amplitude                : 0.5000    
 cut-off energy for mixing                      :  320.0       eV
 charge density mixing g-vector                 :  1.500       1/A

 ********************** Geometry Optimization Parameters ***********************
  
 optimization method                            : BFGS
 variable cell method                           : fixed basis quality
 max. number of steps                           :        100
 estimated bulk modulus                         :  500.0       GPa
 estimated <frequency>                          :  1668.       cm-1
 geom line minimiser                            : on
 with line minimiser tolerance                  :     0.4000
 total energy convergence tolerance             : 0.5000E-05   eV/atom
        max ionic |force| tolerance             : 0.1000E-01   eV/A
 max ionic |displacement| tolerance             : 0.5000E-03   A
   max |stress component| tolerance             : 0.2000E-01   GPa
 convergence tolerance window                   :          2   steps
 backup results every                           :          5   steps
 write geom trajectory file                     : on

 *******************************************************************************
  
 
                           -------------------------------
                                      Unit Cell
                           -------------------------------
        Real Lattice(A)                      Reciprocal Lattice(1/A)
   5.1263551   0.0000000  -0.0000000        1.2256633   0.0000000   0.0000000
   0.0000000   5.1263550  -0.0000000       -0.0000000   1.2256633   0.0000000
   0.0000000   0.0000000   5.1263551        0.0000000   0.0000000   1.2256633
 
                       Lattice parameters(A)       Cell Angles
                    a =    5.126355          alpha =   90.000000
                    b =    5.126355          beta  =   90.000000
                    c =    5.126355          gamma =   90.000000
 
                       Current cell volume =  134.718132       A**3
                                   density =    1.667808   AMU/A**3
                                           =    2.769460     g/cm^3
 
                           -------------------------------
                                     Cell Contents
                           -------------------------------
                         Total number of ions in cell =    8
                      Total number of species in cell =    1
                        Max number of any one species =    8
 
            xxxxxxxxxxxxxxxxxxxxxxxxxxxxxxxxxxxxxxxxxxxxxxxxxxxxxxxxxxxx
            x  Element    Atom        Fractional coordinates of atoms  x
            x            Number           u          v          w      x
            x----------------------------------------------------------x
            x  Si           1         0.000000  -0.000000  -0.000000   x 
            x  Si           2         0.000000   0.500000   0.500000   x 
            x  Si           3         0.500000   0.000000   0.500000   x 
            x  Si           4         0.500000   0.500000  -0.000000   x 
            x  Si           5         0.750000   0.250000   0.750000   x 
            x  Si           6         0.250000   0.250000   0.250000   x 
            x  Si           7         0.250000   0.750000   0.750000   x 
            x  Si           8         0.750000   0.750000   0.250000   x 
            xxxxxxxxxxxxxxxxxxxxxxxxxxxxxxxxxxxxxxxxxxxxxxxxxxxxxxxxxxxx
 
 
                         No user defined ionic velocities
 
                           -------------------------------
                                   Details of Species
                           -------------------------------
 
                               Mass of species in AMU
                                    Si   28.0849991
 
                          Electric Quadrupole Moment (Barn)
                                    Si    1.0000000 No Isotope Defined
 
                          Files used for pseudopotentials:
                                    Si D:\PROGRA~1\BIOVIA\MATERI~1.2\share\Resources\Quantum\Castep\Potentials\Si_00PBE.usp
 
                           -------------------------------
                              k-Points For BZ Sampling
                           -------------------------------
                       MP grid size for SCF calculation is  8  8  8
                            with an offset of   0.000  0.000  0.000
                       Number of kpoints used =           256
 
                           -------------------------------
                               Symmetry and Constraints
                           -------------------------------
 
                      Cell is a supercell containing 4 primitive cells
                      Maximum deviation from symmetry =  0.00000         ANG
 
                      Number of symmetry operations   =           1
         There are no ionic constraints specified or generated for this cell
                      Point group of crystal =     1: C1, 1, 1
                      Space group of crystal =   227: Fd-3m, F 4d 2 3 -1d
 
             Set iprint > 1 for details on symmetry rotations/translations
 
                         Centre of mass is NOT constrained
 
                         Number of cell constraints= 6
                         Cell constraints are:  0 0 0 0 0 0
 
                         External pressure/stress (GPa)
                          0.00000   0.00000   0.00000
                                    0.00000   0.00000
                                              0.00000
  
+---------------- MEMORY AND SCRATCH DISK ESTIMATES PER PROCESS --------------+
|                                                     Memory          Disk    |
| Baseline code, static data and system overhead        0.0 MB         0.0 MB |
| BLAS internal memory storage                          0.0 MB         0.0 MB |
| Model and support data                               43.8 MB        25.0 MB |
| Electronic energy minimisation requirements          39.4 MB         0.0 MB |
| Force calculation requirements                       11.7 MB         0.0 MB |
| Stress calculation requirements                      14.4 MB         0.0 MB |
|                                               ----------------------------- |
| Approx. total storage required per process           83.2 MB        25.0 MB |
|                                                                             |
| Requirements will fluctuate during execution and may exceed these estimates |
+-----------------------------------------------------------------------------+
Calculating finite basis set correction with  3 cut-off energies.
Calculating total energy with cut-off of  310.000 eV.
------------------------------------------------------------------------ <-- SCF
SCF loop      Energy                           Energy gain       Timer   <-- SCF
                                               per atom          (sec)   <-- SCF
------------------------------------------------------------------------ <-- SCF
Initial   3.92048387E+002                                          1.53  <-- SCF
      1  -7.47539076E+002                    1.42448433E+002       7.43  <-- SCF
      2  -8.54859600E+002                    1.34150655E+001      11.93  <-- SCF
      3  -8.57518118E+002                    3.32314734E-001      15.77  <-- SCF
      4  -8.56987952E+002                   -6.62707471E-002      21.48  <-- SCF
      5  -8.56736868E+002                   -3.13855192E-002      26.55  <-- SCF
      6  -8.56749563E+002                    1.58693544E-003      32.59  <-- SCF
      7  -8.56749829E+002                    3.32304340E-005      38.22  <-- SCF
      8  -8.56749867E+002                    4.74940958E-006      42.29  <-- SCF
      9  -8.56749867E+002                    3.29814389E-008      45.74  <-- SCF
     10  -8.56749867E+002                    2.19208280E-008      49.23  <-- SCF
------------------------------------------------------------------------ <-- SCF
 
Final energy =  -856.7498673914     eV
(energy not corrected for finite basis set)
 
Calculating total energy with cut-off of  315.000 eV.
------------------------------------------------------------------------ <-- SCF
SCF loop      Energy                           Energy gain       Timer   <-- SCF
                                               per atom          (sec)   <-- SCF
------------------------------------------------------------------------ <-- SCF
Initial  -8.56749867E+002                                         50.89  <-- SCF
      1  -8.56751932E+002                    2.58086708E-004      55.58  <-- SCF
      2  -8.56751934E+002                    2.26619317E-007      59.19  <-- SCF
      3  -8.56751936E+002                    2.21147131E-007      62.71  <-- SCF
      4  -8.56751936E+002                    2.67217443E-008      66.30  <-- SCF
------------------------------------------------------------------------ <-- SCF
 
Final energy =  -856.7519358739     eV
(energy not corrected for finite basis set)
 
Calculating total energy with cut-off of  320.000 eV.
------------------------------------------------------------------------ <-- SCF
SCF loop      Energy                           Energy gain       Timer   <-- SCF
                                               per atom          (sec)   <-- SCF
------------------------------------------------------------------------ <-- SCF
Initial  -8.56751936E+002                                         67.99  <-- SCF
      1  -8.56753965E+002                    2.53585899E-004      72.65  <-- SCF
      2  -8.56753966E+002                    1.94602180E-007      76.35  <-- SCF
      3  -8.56753968E+002                    2.26425377E-007      79.86  <-- SCF
      4  -8.56753968E+002                    2.24762096E-008      83.35  <-- SCF
------------------------------------------------------------------------ <-- SCF
 
Final energy =  -856.7539681112     eV
(energy not corrected for finite basis set)
 
 For future reference: finite basis dEtot/dlog(Ecut) =      -0.130836eV
 Total energy corrected for finite basis set =    -856.753977 eV
 
+---------------- MEMORY AND SCRATCH DISK ESTIMATES PER PROCESS --------------+
|                                                     Memory          Disk    |
| Model and support data                               48.7 MB        25.0 MB |
| Electronic energy minimisation requirements          39.4 MB         0.0 MB |
| Geometry minimisation requirements                   55.4 MB         0.0 MB |
|                                               ----------------------------- |
| Approx. total storage required per process          143.4 MB        25.0 MB |
|                                                                             |
| Requirements will fluctuate during execution and may exceed these estimates |
+-----------------------------------------------------------------------------+
 
 
 ************************************** Forces **************************************
 *                                                                                  *
 *                           Cartesian components (eV/A)                            *
 * -------------------------------------------------------------------------------- *
 *                         x                    y                    z              *
 *                                                                                  *
 * Si              1     -0.00000              0.00000              0.00000         *
 * Si              2     -0.00000              0.00000              0.00000         *
 * Si              3      0.00000              0.00000             -0.00000         *
 * Si              4      0.00000             -0.00000              0.00000         *
 * Si              5      0.02547             -0.02547              0.02547         *
 * Si              6     -0.02547             -0.02547             -0.02547         *
 * Si              7     -0.02546              0.02547              0.02547         *
 * Si              8      0.02547              0.02546             -0.02547         *
 *                                                                                  *
 ************************************************************************************
 BFGS: finished iteration     0 with enthalpy= -8.56753968E+002 eV
  
 +-----------+-----------------+-----------------+------------+-----+ <-- BFGS
 | Parameter |      value      |    tolerance    |    units   | OK? | <-- BFGS
 +-----------+-----------------+-----------------+------------+-----+ <-- BFGS
 |  dE/ion   |   0.000000E+000 |   5.000000E-006 |         eV | No  | <-- BFGS
 |  |F|max   |   4.411239E-002 |   1.000000E-002 |       eV/A | No  | <-- BFGS
 |  |dR|max  |   0.000000E+000 |   5.000000E-004 |          A | No  | <-- BFGS
 +-----------+-----------------+-----------------+------------+-----+ <-- BFGS
  

================================================================================
 Starting BFGS iteration          1 ...
================================================================================
  
 +------------+-------------+-------------+-----------------+ <-- min BFGS
 |    Step    |   lambda    |   F.delta'  |    enthalpy     | <-- min BFGS
 +------------+-------------+-------------+-----------------+ <-- min BFGS
 |  previous  |    0.000000 |    0.016620 |     -856.753968 | <-- min BFGS
 +------------+-------------+-------------+-----------------+ <-- min BFGS
  

--------------------------------------------------------------------------------
 BFGS: starting iteration         1 with trial guess (lambda=  1.000000)
--------------------------------------------------------------------------------
 
                           -------------------------------
                                     Cell Contents
                           -------------------------------
 
            xxxxxxxxxxxxxxxxxxxxxxxxxxxxxxxxxxxxxxxxxxxxxxxxxxxxxxxxxxxxxxxxx
            x  Element         Atom        Fractional coordinates of atoms  x
            x                 Number           u          v          w      x
            x---------------------------------------------------------------x
            x  Si                1         0.000000  -0.000000  -0.000000   x
            x  Si                2        -0.000000   0.500000   0.500000   x
            x  Si                3         0.500000   0.000000   0.500000   x
            x  Si                4         0.500000   0.500000   0.000000   x
            x  Si                5         0.750017   0.249983   0.750017   x
            x  Si                6         0.249983   0.249983   0.249983   x
            x  Si                7         0.249983   0.750017   0.750017   x
            x  Si                8         0.750017   0.750017   0.249983   x
            xxxxxxxxxxxxxxxxxxxxxxxxxxxxxxxxxxxxxxxxxxxxxxxxxxxxxxxxxxxxxxxxx
 
 
------------------------------------------------------------------------ <-- SCF
SCF loop      Energy                           Energy gain       Timer   <-- SCF
                                               per atom          (sec)   <-- SCF
------------------------------------------------------------------------ <-- SCF
Initial  -8.56754897E+002                                         86.66  <-- SCF
      1  -8.56753994E+002                   -1.12962154E-004      89.73  <-- SCF
      2  -8.56753994E+002                    4.35304012E-008      93.32  <-- SCF
      3  -8.56753994E+002                    1.21512899E-008      96.80  <-- SCF
      4  -8.56753994E+002                    2.03525903E-009     100.39  <-- SCF
------------------------------------------------------------------------ <-- SCF
 
Final energy =  -856.7539941763     eV
(energy not corrected for finite basis set)
 
 
 ************************************** Forces **************************************
 *                                                                                  *
 *                           Cartesian components (eV/A)                            *
 * -------------------------------------------------------------------------------- *
 *                         x                    y                    z              *
 *                                                                                  *
 * Si              1     -0.00000              0.00000             -0.00000         *
 * Si              2     -0.00000              0.00000              0.00000         *
 * Si              3      0.00000              0.00000             -0.00000         *
 * Si              4      0.00000             -0.00000             -0.00000         *
 * Si              5      0.02330             -0.02330              0.02330         *
 * Si              6     -0.02330             -0.02330             -0.02330         *
 * Si              7     -0.02330              0.02330              0.02330         *
 * Si              8      0.02330              0.02330             -0.02330         *
 *                                                                                  *
 ************************************************************************************
  
 +------------+-------------+-------------+-----------------+ <-- min BFGS
 |    Step    |   lambda    |   F.delta'  |    enthalpy     | <-- min BFGS
 +------------+-------------+-------------+-----------------+ <-- min BFGS
 |  previous  |    0.000000 |    0.016620 |     -856.753968 | <-- min BFGS
 | trial step |    1.000000 |    0.015204 |     -856.753994 | <-- min BFGS
 +------------+-------------+-------------+-----------------+ <-- min BFGS
  

--------------------------------------------------------------------------------
 BFGS: improving iteration         1 with line minimization (lambda= 11.742657)
--------------------------------------------------------------------------------
 
                           -------------------------------
                                     Cell Contents
                           -------------------------------
 
            xxxxxxxxxxxxxxxxxxxxxxxxxxxxxxxxxxxxxxxxxxxxxxxxxxxxxxxxxxxxxxxxx
            x  Element         Atom        Fractional coordinates of atoms  x
            x                 Number           u          v          w      x
            x---------------------------------------------------------------x
            x  Si                1        -0.000000   0.000000   0.000000   x
            x  Si                2        -0.000000   0.500000   0.500000   x
            x  Si                3         0.500000   0.000000   0.500000   x
            x  Si                4         0.500000   0.500000   0.000000   x
            x  Si                5         0.750203   0.249797   0.750203   x
            x  Si                6         0.249797   0.249797   0.249797   x
            x  Si                7         0.249797   0.750203   0.750203   x
            x  Si                8         0.750203   0.750203   0.249797   x
            xxxxxxxxxxxxxxxxxxxxxxxxxxxxxxxxxxxxxxxxxxxxxxxxxxxxxxxxxxxxxxxxx
 
 
------------------------------------------------------------------------ <-- SCF
SCF loop      Energy                           Energy gain       Timer   <-- SCF
                                               per atom          (sec)   <-- SCF
------------------------------------------------------------------------ <-- SCF
Initial  -8.56754346E+002                                        103.71  <-- SCF
      1  -8.56754128E+002                   -2.72446513E-005     108.44  <-- SCF
      2  -8.56754136E+002                    9.76975051E-007     112.62  <-- SCF
      3  -8.56754135E+002                   -1.53194830E-007     116.19  <-- SCF
      4  -8.56754136E+002                    1.04604534E-007     119.82  <-- SCF
------------------------------------------------------------------------ <-- SCF
 
Final energy =  -856.7541358760     eV
(energy not corrected for finite basis set)
 
 
 ************************************** Forces **************************************
 *                                                                                  *
 *                           Cartesian components (eV/A)                            *
 * -------------------------------------------------------------------------------- *
 *                         x                    y                    z              *
 *                                                                                  *
 * Si              1      0.00000             -0.00000             -0.00000         *
 * Si              2      0.00000              0.00000              0.00000         *
 * Si              3     -0.00000             -0.00000             -0.00000         *
 * Si              4     -0.00000             -0.00000             -0.00000         *
 * Si              5      0.00133             -0.00133              0.00133         *
 * Si              6     -0.00132             -0.00133             -0.00133         *
 * Si              7     -0.00133              0.00133              0.00133         *
 * Si              8      0.00133              0.00133             -0.00133         *
 *                                                                                  *
 ************************************************************************************
  
 +------------+-------------+-------------+-----------------+ <-- min BFGS
 |    Step    |   lambda    |   F.delta'  |    enthalpy     | <-- min BFGS
 +------------+-------------+-------------+-----------------+ <-- min BFGS
 |  previous  |    0.000000 |    0.016620 |     -856.753968 | <-- min BFGS
 | trial step |    1.000000 |    0.015204 |     -856.753994 | <-- min BFGS
 |  line step |   11.742657 |    0.000866 |     -856.754136 | <-- min BFGS
 +------------+-------------+-------------+-----------------+ <-- min BFGS
  
 BFGS: finished iteration     1 with enthalpy= -8.56754136E+002 eV
  
 +-----------+-----------------+-----------------+------------+-----+ <-- BFGS
 | Parameter |      value      |    tolerance    |    units   | OK? | <-- BFGS
 +-----------+-----------------+-----------------+------------+-----+ <-- BFGS
 |  dE/ion   |   2.097061E-005 |   5.000000E-006 |         eV | No  | <-- BFGS
 |  |F|max   |   2.299937E-003 |   1.000000E-002 |       eV/A | Yes | <-- BFGS
 |  |dR|max  |   1.803076E-003 |   5.000000E-004 |          A | No  | <-- BFGS
 +-----------+-----------------+-----------------+------------+-----+ <-- BFGS
  

================================================================================
 Starting BFGS iteration          2 ...
================================================================================
  
 +------------+-------------+-------------+-----------------+ <-- min BFGS
 |    Step    |   lambda    |   F.delta'  |    enthalpy     | <-- min BFGS
 +------------+-------------+-------------+-----------------+ <-- min BFGS
 |  previous  |    0.000000 |    0.000866 |     -856.754136 | <-- min BFGS
 +------------+-------------+-------------+-----------------+ <-- min BFGS
  

--------------------------------------------------------------------------------
 BFGS: starting iteration         2 with trial guess (lambda=  1.000000)
--------------------------------------------------------------------------------
 
                           -------------------------------
                                     Cell Contents
                           -------------------------------
 
            xxxxxxxxxxxxxxxxxxxxxxxxxxxxxxxxxxxxxxxxxxxxxxxxxxxxxxxxxxxxxxxxx
            x  Element         Atom        Fractional coordinates of atoms  x
            x                 Number           u          v          w      x
            x---------------------------------------------------------------x
            x  Si                1        -0.000000   0.000000   0.000000   x
            x  Si                2        -0.000000   0.500000   0.500000   x
            x  Si                3         0.500000   0.000000   0.500000   x
            x  Si                4         0.500000   0.500000   0.000000   x
            x  Si                5         0.750214   0.249786   0.750214   x
            x  Si                6         0.249786   0.249786   0.249786   x
            x  Si                7         0.249786   0.750214   0.750214   x
            x  Si                8         0.750214   0.750214   0.249786   x
            xxxxxxxxxxxxxxxxxxxxxxxxxxxxxxxxxxxxxxxxxxxxxxxxxxxxxxxxxxxxxxxxx
 
 
------------------------------------------------------------------------ <-- SCF
SCF loop      Energy                           Energy gain       Timer   <-- SCF
                                               per atom          (sec)   <-- SCF
------------------------------------------------------------------------ <-- SCF
Initial  -8.56753753E+002                                        123.12  <-- SCF
      1  -8.56754136E+002                    4.79464941E-005     126.27  <-- SCF
      2  -8.56754136E+002                    3.03595121E-008     129.81  <-- SCF
      3  -8.56754136E+002                    1.55681570E-008     133.33  <-- SCF
      4  -8.56754137E+002                    5.52442642E-009     136.92  <-- SCF
------------------------------------------------------------------------ <-- SCF
 
Final energy =  -856.7541365286     eV
(energy not corrected for finite basis set)
 
 
 ************************************** Forces **************************************
 *                                                                                  *
 *                           Cartesian components (eV/A)                            *
 * -------------------------------------------------------------------------------- *
 *                         x                    y                    z              *
 *                                                                                  *
 * Si              1      0.00000             -0.00000             -0.00000         *
 * Si              2      0.00000              0.00000              0.00000         *
 * Si              3     -0.00000             -0.00000             -0.00000         *
 * Si              4     -0.00000             -0.00000             -0.00000         *
 * Si              5     -0.00017              0.00017             -0.00017         *
 * Si              6      0.00017              0.00017              0.00017         *
 * Si              7      0.00017             -0.00017             -0.00017         *
 * Si              8     -0.00017             -0.00017              0.00017         *
 *                                                                                  *
 ************************************************************************************
  
 +------------+-------------+-------------+-----------------+ <-- min BFGS
 |    Step    |   lambda    |   F.delta'  |    enthalpy     | <-- min BFGS
 +------------+-------------+-------------+-----------------+ <-- min BFGS
 |  previous  |    0.000000 |    0.000866 |     -856.754136 | <-- min BFGS
 | trial step |    1.000000 |   -0.000110 |     -856.754137 | <-- min BFGS
 +------------+-------------+-------------+-----------------+ <-- min BFGS
  
 BFGS: finished iteration     2 with enthalpy= -8.56754137E+002 eV
  
 +-----------+-----------------+-----------------+------------+-----+ <-- BFGS
 | Parameter |      value      |    tolerance    |    units   | OK? | <-- BFGS
 +-----------+-----------------+-----------------+------------+-----+ <-- BFGS
 |  dE/ion   |   8.157439E-008 |   5.000000E-006 |         eV | Yes | <-- BFGS
 |  |F|max   |   2.934269E-004 |   1.000000E-002 |       eV/A | Yes | <-- BFGS
 |  |dR|max  |   9.911978E-005 |   5.000000E-004 |          A | Yes | <-- BFGS
 +-----------+-----------------+-----------------+------------+-----+ <-- BFGS
  
 BFGS: Geometry optimization completed successfully.

================================================================================
 BFGS: Final Configuration:
================================================================================
 
                           -------------------------------
                                     Cell Contents
                           -------------------------------
 
            xxxxxxxxxxxxxxxxxxxxxxxxxxxxxxxxxxxxxxxxxxxxxxxxxxxxxxxxxxxxxxxxx
            x  Element         Atom        Fractional coordinates of atoms  x
            x                 Number           u          v          w      x
            x---------------------------------------------------------------x
            x  Si                1        -0.000000   0.000000   0.000000   x
            x  Si                2        -0.000000   0.500000   0.500000   x
            x  Si                3         0.500000   0.000000   0.500000   x
            x  Si                4         0.500000   0.500000   0.000000   x
            x  Si                5         0.750214   0.249786   0.750214   x
            x  Si                6         0.249786   0.249786   0.249786   x
            x  Si                7         0.249786   0.750214   0.750214   x
            x  Si                8         0.750214   0.750214   0.249786   x
            xxxxxxxxxxxxxxxxxxxxxxxxxxxxxxxxxxxxxxxxxxxxxxxxxxxxxxxxxxxxxxxxx
 
 
 BFGS: Final Enthalpy     = -8.56754137E+002 eV
 BFGS: Final <frequency>  =     494.22142 cm-1
 
 ************************************** Forces **************************************
 *                                                                                  *
 *                           Cartesian components (eV/A)                            *
 * -------------------------------------------------------------------------------- *
 *                         x                    y                    z              *
 *                                                                                  *
 * Si              1      0.00000             -0.00000             -0.00000         *
 * Si              2      0.00000              0.00000              0.00000         *
 * Si              3     -0.00000             -0.00000             -0.00000         *
 * Si              4     -0.00000             -0.00000             -0.00000         *
 * Si              5     -0.00017              0.00017             -0.00017         *
 * Si              6      0.00017              0.00017              0.00017         *
 * Si              7      0.00017             -0.00017             -0.00017         *
 * Si              8     -0.00017             -0.00017              0.00017         *
 *                                                                                  *
 ************************************************************************************
 
 ***************** Stress Tensor *****************
 *                                               *
 *          Cartesian components (GPa)           *
 * --------------------------------------------- *
 *             x             y             z     *
 *                                               *
 *  x    -25.120042     -0.000001     -0.000003  *
 *  y     -0.000001    -25.120043     -0.000002  *
 *  z     -0.000003     -0.000002    -25.120042  *
 *                                               *
 *  Pressure:   25.1200                          *
 *                                               *
 *************************************************

Writing analysis data to Si.castep_bin

Writing model to Si.check
 
 A BibTeX formatted list of references used in this run has been written to 
 Si.bib
 
Initialisation time =      0.59 s
Calculation time    =    145.60 s
Finalisation time   =      0.48 s
Total time          =    146.67 s
  
Overall parallel efficiency rating: Excellent (98%)                             
  
Data was distributed by:-
k-point (8-way); efficiency rating: Excellent (99%)                             
  
Parallel notes:
1) Calculation only took 146.3 s, so efficiency estimates may be inaccurate.    
