 Job started on host YOS-20180822FRE
 at Fri May  3 03:21:49 2019

 +-------------------------------------------------+
 |                                                 |
 |      CCC   AA    SSS  TTTTT  EEEEE  PPPP        |
 |     C     A  A  S       T    E      P   P       |
 |     C     AAAA   SS     T    EEE    PPPP        |
 |     C     A  A     S    T    E      P           |
 |      CCC  A  A  SSS     T    EEEEE  P           |
 |                                                 |
 +-------------------------------------------------+
 |                                                 |
 | Materials Studio CASTEP version 2017 R2         |
 | Ab Initio Total Energy Program                  |
 |                                                 |
 | Authors:                                        |
 | M. Segall, M. Probert, C. Pickard, P. Hasnip,   |
 | S. Clark, K. Refson, J. R. Yates, M. Payne      |
 |                                                 |
 | Contributors:                                   |
 | P. Lindan, P. Haynes, J. White, V. Milman,      |
 | N. Govind, M. Gibson, P. Tulip, V. Cocula,      |
 | B. Montanari, D. Quigley, M. Glover,            |
 | L. Bernasconi, A. Perlov, M. Plummer,           |
 | E. McNellis, J. Meyer, J. Gale, D. Jochym       |
 | J. Aarons, B. Walker, R. Gillen, D. Jones       |
 | T. Green, I. J. Bush, C. J. Armstrong,          |
 | E. J. Higgins, E. L. Brown, M. S. McFly,        |
 | J. Wilkins, B-C. Shih, P. J. P. Byrne           |
 |                                                 |
 | Copyright (c) 2000 - 2016                       |
 |                                                 |
 | Please cite                                     |
 |                                                 |
 |     "First principles methods using CASTEP"     |
 |                                                 |
 |         Zeitschrift fuer Kristallographie       |
 |           220(5-6) pp. 567-570 (2005)           |
 |                                                 |
 | S. J. Clark, M. D. Segall, C. J. Pickard,       |
 | P. J. Hasnip, M. J. Probert, K. Refson,         |
 | M. C. Payne                                     |
 |                                                 |
 |       in all publications arising from          |
 |              your use of CASTEP                 |
 |                                                 |
 +-------------------------------------------------+
 
 
 This version was compiled for i686-windows-msvc2013 on Dec 07 2016
 Code version: 7217
 Intel(R) Math Kernel Library Version 11.1.2 
 Fundamental constants values: CODATA 2010
 
License checkout of MS_castep successful
 
 
 Pseudo atomic calculation performed for Si 3s2 3p2
 
 Converged in 17 iterations to a total energy of -101.9015 eV
 
 Calculation parallelised over 8 processes.
 Data is distributed by k-point(8-way)

 ************************************ Title ************************************
 CASTEP calculation from Materials Studio

 ***************************** General Parameters ******************************
  
 output verbosity                               : normal  (1)
 write checkpoint data to                       : Si.check
 type of calculation                            : geometry optimization
 stress calculation                             : on
 density difference calculation                 : off
 electron localisation func (ELF) calculation   : off
 Hirshfeld analysis                             : off
 unlimited duration calculation
 timing information                             : on
 memory usage estimate                          : on
 write final potential to formatted file        : off
 write final density to formatted file          : off
 write BibTeX reference list                    : on
 write OTFG pseudopotential files               : on
 write electrostatic potential file             : on
 write bands file                               : on
 checkpoint writing                             : both castep_bin and check files
  
 output         length unit                     : A
 output           mass unit                     : amu
 output           time unit                     : ps
 output         charge unit                     : e
 output           spin unit                     : hbar/2
 output         energy unit                     : eV
 output          force unit                     : eV/A
 output       velocity unit                     : A/ps
 output       pressure unit                     : GPa
 output     inv_length unit                     : 1/A
 output      frequency unit                     : cm-1
 output force constant unit                     : eV/A**2
 output         volume unit                     : A**3
 output   IR intensity unit                     : (D/A)**2/amu
 output         dipole unit                     : D
 output         efield unit                     : eV/A/e
 output        entropy unit                     : J/mol/K
  
 wavefunctions paging                           : none
 random number generator seed                   : randomised (32150845)
 data distribution                              : optimal for this architecture
 optimization strategy                          : balance speed and memory

 *********************** Exchange-Correlation Parameters ***********************
  
 using functional                               : Perdew Burke Ernzerhof
 relativistic treatment                         : Koelling-Harmon
 DFT+D: Semi-empirical dispersion correction    : off

 ************************* Pseudopotential Parameters **************************
  
 pseudopotential representation                 : reciprocal space
 <beta|phi> representation                      : reciprocal space
 spin-orbit coupling                            : off

 **************************** Basis Set Parameters *****************************
  
 plane wave basis set cut-off                   :   320.0000   eV
 size of standard grid                          :     2.0000
 size of   fine   grid                          :     3.0000
 size of   fine   gmax                          :    27.4938   1/A
 largest prime factor in FFT                    :          5
 finite basis set correction                    : automatic
 number of sample energies                      :          3
           sample  spacing                      :     5.0000   eV

 **************************** Electronic Parameters ****************************
  
 number of  electrons                           :  32.00    
 net charge of system                           :  0.000    
 treating system as non-spin-polarized
 number of bands                                :         16

 ********************* Electronic Minimization Parameters **********************
  
 Method: Treating system as non-metallic,
         and number of  SD  steps               :          1
         and number of  CG  steps               :          4
  
 total energy / atom convergence tol.           : 0.5000E-06   eV
 eigen-energy convergence tolerance             : 0.2500E-06   eV
 max force / atom convergence tol.              : ignored
 convergence tolerance window                   :          3   cycles
 max. number of SCF cycles                      :        100
 periodic dipole correction                     : NONE

 ************************** Density Mixing Parameters **************************
  
 density-mixing scheme                          : Pulay
 max. length of mixing history                  :         20
 charge density mixing amplitude                : 0.5000    
 cut-off energy for mixing                      :  320.0       eV
 charge density mixing g-vector                 :  1.500       1/A

 ********************** Geometry Optimization Parameters ***********************
  
 optimization method                            : BFGS
 variable cell method                           : fixed basis quality
 max. number of steps                           :        100
 estimated bulk modulus                         :  500.0       GPa
 estimated <frequency>                          :  1668.       cm-1
 geom line minimiser                            : on
 with line minimiser tolerance                  :     0.4000
 total energy convergence tolerance             : 0.5000E-05   eV/atom
        max ionic |force| tolerance             : 0.1000E-01   eV/A
 max ionic |displacement| tolerance             : 0.5000E-03   A
   max |stress component| tolerance             : 0.2000E-01   GPa
 convergence tolerance window                   :          2   steps
 backup results every                           :          5   steps
 write geom trajectory file                     : on

 *******************************************************************************
  
 
                           -------------------------------
                                      Unit Cell
                           -------------------------------
        Real Lattice(A)                      Reciprocal Lattice(1/A)
   5.4625676   0.1082643   0.1082643        1.1511124  -0.0223709  -0.0223709
   0.1082643   5.4625675   0.1082643       -0.0223709   1.1511124  -0.0223709
   0.1082643   0.1082643   5.4625676       -0.0223709  -0.0223709   1.1511124
 
                       Lattice parameters(A)       Cell Angles
                    a =    5.464713          alpha =   87.707557
                    b =    5.464713          beta  =   87.707558
                    c =    5.464713          gamma =   87.707557
 
                       Current cell volume =  162.811529       A**3
                                   density =    1.380025   AMU/A**3
                                           =    2.291585     g/cm^3
 
                           -------------------------------
                                     Cell Contents
                           -------------------------------
                         Total number of ions in cell =    8
                      Total number of species in cell =    1
                        Max number of any one species =    8
 
            xxxxxxxxxxxxxxxxxxxxxxxxxxxxxxxxxxxxxxxxxxxxxxxxxxxxxxxxxxxx
            x  Element    Atom        Fractional coordinates of atoms  x
            x            Number           u          v          w      x
            x----------------------------------------------------------x
            x  Si           1         0.000000  -0.000000  -0.000000   x 
            x  Si           2         0.000000   0.500000   0.500000   x 
            x  Si           3         0.500000   0.000000   0.500000   x 
            x  Si           4         0.500000   0.500000  -0.000000   x 
            x  Si           5         0.750000   0.250000   0.750000   x 
            x  Si           6         0.250000   0.250000   0.250000   x 
            x  Si           7         0.250000   0.750000   0.750000   x 
            x  Si           8         0.750000   0.750000   0.250000   x 
            xxxxxxxxxxxxxxxxxxxxxxxxxxxxxxxxxxxxxxxxxxxxxxxxxxxxxxxxxxxx
 
 
                         No user defined ionic velocities
 
                           -------------------------------
                                   Details of Species
                           -------------------------------
 
                               Mass of species in AMU
                                    Si   28.0849991
 
                          Electric Quadrupole Moment (Barn)
                                    Si    1.0000000 No Isotope Defined
 
                          Files used for pseudopotentials:
                                    Si D:\PROGRA~1\BIOVIA\MATERI~1.2\share\Resources\Quantum\Castep\Potentials\Si_00PBE.usp
 
                           -------------------------------
                              k-Points For BZ Sampling
                           -------------------------------
                       MP grid size for SCF calculation is  8  8  8
                            with an offset of   0.000  0.000  0.000
                       Number of kpoints used =           256
 
                           -------------------------------
                               Symmetry and Constraints
                           -------------------------------
 
                      Cell is a supercell containing 4 primitive cells
                      Maximum deviation from symmetry =  0.00000         ANG
 
                      Number of symmetry operations   =           1
         There are no ionic constraints specified or generated for this cell
                      Point group of crystal =     1: C1, 1, 1
                      Space group of crystal =   166: R-3m, -R 3 2"
 
             Set iprint > 1 for details on symmetry rotations/translations
 
                         Centre of mass is NOT constrained
 
                         Number of cell constraints= 6
                         Cell constraints are:  0 0 0 0 0 0
 
                         External pressure/stress (GPa)
                          0.00000   0.00000   0.00000
                                    0.00000   0.00000
                                              0.00000
  
+---------------- MEMORY AND SCRATCH DISK ESTIMATES PER PROCESS --------------+
|                                                     Memory          Disk    |
| Baseline code, static data and system overhead        0.0 MB         0.0 MB |
| BLAS internal memory storage                          0.0 MB         0.0 MB |
| Model and support data                               52.0 MB        31.0 MB |
| Electronic energy minimisation requirements          47.3 MB         0.0 MB |
| Force calculation requirements                       14.2 MB         0.0 MB |
| Stress calculation requirements                      17.5 MB         0.0 MB |
|                                               ----------------------------- |
| Approx. total storage required per process           99.4 MB        31.0 MB |
|                                                                             |
| Requirements will fluctuate during execution and may exceed these estimates |
+-----------------------------------------------------------------------------+
Calculating finite basis set correction with  3 cut-off energies.
Calculating total energy with cut-off of  310.000 eV.
------------------------------------------------------------------------ <-- SCF
SCF loop      Energy                           Energy gain       Timer   <-- SCF
                                               per atom          (sec)   <-- SCF
------------------------------------------------------------------------ <-- SCF
Initial   4.01653929E+002                                          1.76  <-- SCF
      1  -7.42033851E+002                    1.42960972E+002       9.55  <-- SCF
      2  -8.55670842E+002                    1.42046240E+001      15.65  <-- SCF
      3  -8.58869192E+002                    3.99793740E-001      20.90  <-- SCF
      4  -8.58592211E+002                   -3.46226662E-002      29.19  <-- SCF
      5  -8.58416931E+002                   -2.19099414E-002      35.93  <-- SCF
      6  -8.58430173E+002                    1.65523361E-003      44.10  <-- SCF
      7  -8.58431296E+002                    1.40386342E-004      51.46  <-- SCF
      8  -8.58431351E+002                    6.78037082E-006      58.13  <-- SCF
      9  -8.58431352E+002                    1.87012465E-007      62.88  <-- SCF
     10  -8.58431352E+002                    3.25224899E-008      67.64  <-- SCF
------------------------------------------------------------------------ <-- SCF
 
Final energy =  -858.4313522656     eV
(energy not corrected for finite basis set)
 
Calculating total energy with cut-off of  315.000 eV.
------------------------------------------------------------------------ <-- SCF
SCF loop      Energy                           Energy gain       Timer   <-- SCF
                                               per atom          (sec)   <-- SCF
------------------------------------------------------------------------ <-- SCF
Initial  -8.58431352E+002                                         69.90  <-- SCF
      1  -8.58432932E+002                    1.97487300E-004      75.91  <-- SCF
      2  -8.58432933E+002                    1.65125763E-007      80.79  <-- SCF
      3  -8.58432935E+002                    1.86475500E-007      85.68  <-- SCF
      4  -8.58432935E+002                    4.48600590E-008      90.45  <-- SCF
------------------------------------------------------------------------ <-- SCF
 
Final energy =  -858.4329353275     eV
(energy not corrected for finite basis set)
 
Calculating total energy with cut-off of  320.000 eV.
------------------------------------------------------------------------ <-- SCF
SCF loop      Energy                           Energy gain       Timer   <-- SCF
                                               per atom          (sec)   <-- SCF
------------------------------------------------------------------------ <-- SCF
Initial  -8.58432935E+002                                         92.76  <-- SCF
      1  -8.58434318E+002                    1.72869508E-004      99.12  <-- SCF
      2  -8.58434319E+002                    1.31166766E-007     104.04  <-- SCF
      3  -8.58434321E+002                    1.70808699E-007     108.98  <-- SCF
      4  -8.58434321E+002                    3.73736043E-008     113.91  <-- SCF
------------------------------------------------------------------------ <-- SCF
 
Final energy =  -858.4343209990     eV
(energy not corrected for finite basis set)
 
 For future reference: finite basis dEtot/dlog(Ecut) =      -0.093118eV
 Total energy corrected for finite basis set =    -858.434309 eV
 
+---------------- MEMORY AND SCRATCH DISK ESTIMATES PER PROCESS --------------+
|                                                     Memory          Disk    |
| Model and support data                               56.0 MB        31.0 MB |
| Electronic energy minimisation requirements          47.3 MB         0.0 MB |
| Geometry minimisation requirements                   66.5 MB         0.0 MB |
|                                               ----------------------------- |
| Approx. total storage required per process          169.8 MB        31.0 MB |
|                                                                             |
| Requirements will fluctuate during execution and may exceed these estimates |
+-----------------------------------------------------------------------------+
 
 
 ************************************** Forces **************************************
 *                                                                                  *
 *                           Cartesian components (eV/A)                            *
 * -------------------------------------------------------------------------------- *
 *                         x                    y                    z              *
 *                                                                                  *
 * Si              1      0.28682              0.28682              0.28682         *
 * Si              2      0.28682              0.28682              0.28682         *
 * Si              3      0.28682              0.28682              0.28683         *
 * Si              4      0.28682              0.28682              0.28682         *
 * Si              5     -0.28682             -0.28682             -0.28682         *
 * Si              6     -0.28682             -0.28682             -0.28682         *
 * Si              7     -0.28682             -0.28682             -0.28683         *
 * Si              8     -0.28682             -0.28682             -0.28682         *
 *                                                                                  *
 ************************************************************************************
 BFGS: finished iteration     0 with enthalpy= -8.58434321E+002 eV
  
 +-----------+-----------------+-----------------+------------+-----+ <-- BFGS
 | Parameter |      value      |    tolerance    |    units   | OK? | <-- BFGS
 +-----------+-----------------+-----------------+------------+-----+ <-- BFGS
 |  dE/ion   |   0.000000E+000 |   5.000000E-006 |         eV | No  | <-- BFGS
 |  |F|max   |   4.967939E-001 |   1.000000E-002 |       eV/A | No  | <-- BFGS
 |  |dR|max  |   0.000000E+000 |   5.000000E-004 |          A | No  | <-- BFGS
 +-----------+-----------------+-----------------+------------+-----+ <-- BFGS
  

================================================================================
 Starting BFGS iteration          1 ...
================================================================================
  
 +------------+-------------+-------------+-----------------+ <-- min BFGS
 |    Step    |   lambda    |   F.delta'  |    enthalpy     | <-- min BFGS
 +------------+-------------+-------------+-----------------+ <-- min BFGS
 |  previous  |    0.000000 |    0.293257 |     -858.434321 | <-- min BFGS
 +------------+-------------+-------------+-----------------+ <-- min BFGS
  

--------------------------------------------------------------------------------
 BFGS: starting iteration         1 with trial guess (lambda=  1.000000)
--------------------------------------------------------------------------------
 
                           -------------------------------
                                     Cell Contents
                           -------------------------------
 
            xxxxxxxxxxxxxxxxxxxxxxxxxxxxxxxxxxxxxxxxxxxxxxxxxxxxxxxxxxxxxxxxx
            x  Element         Atom        Fractional coordinates of atoms  x
            x                 Number           u          v          w      x
            x---------------------------------------------------------------x
            x  Si                1         0.000176   0.000176   0.000176   x
            x  Si                2         0.000176   0.500176   0.500176   x
            x  Si                3         0.500176   0.000176   0.500176   x
            x  Si                4         0.500176   0.500176   0.000176   x
            x  Si                5         0.749824   0.249824   0.749824   x
            x  Si                6         0.249824   0.249824   0.249824   x
            x  Si                7         0.249824   0.749824   0.749824   x
            x  Si                8         0.749824   0.749824   0.249824   x
            xxxxxxxxxxxxxxxxxxxxxxxxxxxxxxxxxxxxxxxxxxxxxxxxxxxxxxxxxxxxxxxxx
 
 
------------------------------------------------------------------------ <-- SCF
SCF loop      Energy                           Energy gain       Timer   <-- SCF
                                               per atom          (sec)   <-- SCF
------------------------------------------------------------------------ <-- SCF
Initial  -8.58411504E+002                                        118.08  <-- SCF
      1  -8.58440891E+002                    3.67345794E-003     124.30  <-- SCF
      2  -8.58440907E+002                    1.99663692E-006     130.96  <-- SCF
      3  -8.58440910E+002                    3.78761642E-007     135.81  <-- SCF
      4  -8.58440911E+002                    1.53512514E-007     140.68  <-- SCF
      5  -8.58440912E+002                    1.24168299E-008     145.60  <-- SCF
------------------------------------------------------------------------ <-- SCF
 
Final energy =  -858.4409115370     eV
(energy not corrected for finite basis set)
 
 
 ************************************** Forces **************************************
 *                                                                                  *
 *                           Cartesian components (eV/A)                            *
 * -------------------------------------------------------------------------------- *
 *                         x                    y                    z              *
 *                                                                                  *
 * Si              1      0.26317              0.26317              0.26317         *
 * Si              2      0.26316              0.26317              0.26317         *
 * Si              3      0.26317              0.26317              0.26317         *
 * Si              4      0.26317              0.26317              0.26317         *
 * Si              5     -0.26317             -0.26317             -0.26317         *
 * Si              6     -0.26317             -0.26317             -0.26317         *
 * Si              7     -0.26317             -0.26317             -0.26317         *
 * Si              8     -0.26317             -0.26317             -0.26316         *
 *                                                                                  *
 ************************************************************************************
  
 +------------+-------------+-------------+-----------------+ <-- min BFGS
 |    Step    |   lambda    |   F.delta'  |    enthalpy     | <-- min BFGS
 +------------+-------------+-------------+-----------------+ <-- min BFGS
 |  previous  |    0.000000 |    0.293257 |     -858.434321 | <-- min BFGS
 | trial step |    1.000000 |    0.269069 |     -858.440912 | <-- min BFGS
 +------------+-------------+-------------+-----------------+ <-- min BFGS
  

--------------------------------------------------------------------------------
 BFGS: improving iteration         1 with line minimization (lambda= 12.123821)
--------------------------------------------------------------------------------
 
                           -------------------------------
                                     Cell Contents
                           -------------------------------
 
            xxxxxxxxxxxxxxxxxxxxxxxxxxxxxxxxxxxxxxxxxxxxxxxxxxxxxxxxxxxxxxxxx
            x  Element         Atom        Fractional coordinates of atoms  x
            x                 Number           u          v          w      x
            x---------------------------------------------------------------x
            x  Si                1         0.002131   0.002131   0.002131   x
            x  Si                2         0.002131   0.502131   0.502131   x
            x  Si                3         0.502131   0.002131   0.502131   x
            x  Si                4         0.502131   0.502131   0.002131   x
            x  Si                5         0.747869   0.247869   0.747869   x
            x  Si                6         0.247869   0.247869   0.247869   x
            x  Si                7         0.247869   0.747869   0.747869   x
            x  Si                8         0.747869   0.747869   0.247869   x
            xxxxxxxxxxxxxxxxxxxxxxxxxxxxxxxxxxxxxxxxxxxxxxxxxxxxxxxxxxxxxxxxx
 
 
------------------------------------------------------------------------ <-- SCF
SCF loop      Energy                           Energy gain       Timer   <-- SCF
                                               per atom          (sec)   <-- SCF
------------------------------------------------------------------------ <-- SCF
Initial  -8.58224986E+002                                        149.76  <-- SCF
      1  -8.58473396E+002                    3.10512589E-002     156.20  <-- SCF
      2  -8.58475530E+002                    2.66713293E-004     164.85  <-- SCF
      3  -8.58475808E+002                    3.48048008E-005     172.44  <-- SCF
      4  -8.58475938E+002                    1.61831087E-005     179.46  <-- SCF
      5  -8.58475939E+002                    1.63707902E-007     184.38  <-- SCF
      6  -8.58475940E+002                    8.83519718E-008     189.26  <-- SCF
------------------------------------------------------------------------ <-- SCF
 
Final energy =  -858.4759397842     eV
(energy not corrected for finite basis set)
 
 
 ************************************** Forces **************************************
 *                                                                                  *
 *                           Cartesian components (eV/A)                            *
 * -------------------------------------------------------------------------------- *
 *                         x                    y                    z              *
 *                                                                                  *
 * Si              1     -0.00071             -0.00071             -0.00071         *
 * Si              2     -0.00071             -0.00071             -0.00071         *
 * Si              3     -0.00071             -0.00071             -0.00071         *
 * Si              4     -0.00071             -0.00071             -0.00071         *
 * Si              5      0.00071              0.00071              0.00071         *
 * Si              6      0.00071              0.00071              0.00071         *
 * Si              7      0.00071              0.00071              0.00071         *
 * Si              8      0.00071              0.00071              0.00071         *
 *                                                                                  *
 ************************************************************************************
  
 +------------+-------------+-------------+-----------------+ <-- min BFGS
 |    Step    |   lambda    |   F.delta'  |    enthalpy     | <-- min BFGS
 +------------+-------------+-------------+-----------------+ <-- min BFGS
 |  previous  |    0.000000 |    0.293257 |     -858.434321 | <-- min BFGS
 | trial step |    1.000000 |    0.269069 |     -858.440912 | <-- min BFGS
 |  line step |   12.123821 |   -0.000729 |     -858.475940 | <-- min BFGS
 +------------+-------------+-------------+-----------------+ <-- min BFGS
  
 BFGS: finished iteration     1 with enthalpy= -8.58475940E+002 eV
  
 +-----------+-----------------+-----------------+------------+-----+ <-- BFGS
 | Parameter |      value      |    tolerance    |    units   | OK? | <-- BFGS
 +-----------+-----------------+-----------------+------------+-----+ <-- BFGS
 |  dE/ion   |   5.202348E-003 |   5.000000E-006 |         eV | No  | <-- BFGS
 |  |F|max   |   1.235701E-003 |   1.000000E-002 |       eV/A | Yes | <-- BFGS
 |  |dR|max  |   2.096539E-002 |   5.000000E-004 |          A | No  | <-- BFGS
 +-----------+-----------------+-----------------+------------+-----+ <-- BFGS
  

================================================================================
 Starting BFGS iteration          2 ...
================================================================================
  
 +------------+-------------+-------------+-----------------+ <-- min BFGS
 |    Step    |   lambda    |   F.delta'  |    enthalpy     | <-- min BFGS
 +------------+-------------+-------------+-----------------+ <-- min BFGS
 |  previous  |    0.000000 |    0.000729 |     -858.475940 | <-- min BFGS
 +------------+-------------+-------------+-----------------+ <-- min BFGS
  

--------------------------------------------------------------------------------
 BFGS: starting iteration         2 with trial guess (lambda=  1.000000)
--------------------------------------------------------------------------------
 
                           -------------------------------
                                     Cell Contents
                           -------------------------------
 
            xxxxxxxxxxxxxxxxxxxxxxxxxxxxxxxxxxxxxxxxxxxxxxxxxxxxxxxxxxxxxxxxx
            x  Element         Atom        Fractional coordinates of atoms  x
            x                 Number           u          v          w      x
            x---------------------------------------------------------------x
            x  Si                1         0.002126   0.002126   0.002126   x
            x  Si                2         0.002126   0.502126   0.502126   x
            x  Si                3         0.502126   0.002126   0.502126   x
            x  Si                4         0.502126   0.502126   0.002126   x
            x  Si                5         0.747874   0.247874   0.747874   x
            x  Si                6         0.247874   0.247874   0.247874   x
            x  Si                7         0.247874   0.747874   0.747874   x
            x  Si                8         0.747874   0.747874   0.247874   x
            xxxxxxxxxxxxxxxxxxxxxxxxxxxxxxxxxxxxxxxxxxxxxxxxxxxxxxxxxxxxxxxxx
 
 
------------------------------------------------------------------------ <-- SCF
SCF loop      Energy                           Energy gain       Timer   <-- SCF
                                               per atom          (sec)   <-- SCF
------------------------------------------------------------------------ <-- SCF
Initial  -8.58476344E+002                                        193.41  <-- SCF
      1  -8.58475940E+002                   -5.04759522E-005     197.68  <-- SCF
      2  -8.58475940E+002                    1.21775369E-008     202.63  <-- SCF
      3  -8.58475940E+002                    3.84604043E-009     207.56  <-- SCF
      4  -8.58475940E+002                    1.31217182E-009     212.49  <-- SCF
------------------------------------------------------------------------ <-- SCF
 
Final energy =  -858.4759404457     eV
(energy not corrected for finite basis set)
 
 
 ************************************** Forces **************************************
 *                                                                                  *
 *                           Cartesian components (eV/A)                            *
 * -------------------------------------------------------------------------------- *
 *                         x                    y                    z              *
 *                                                                                  *
 * Si              1     -0.00022             -0.00022             -0.00022         *
 * Si              2     -0.00022             -0.00022             -0.00022         *
 * Si              3     -0.00022             -0.00022             -0.00022         *
 * Si              4     -0.00022             -0.00022             -0.00022         *
 * Si              5      0.00022              0.00022              0.00022         *
 * Si              6      0.00022              0.00022              0.00022         *
 * Si              7      0.00022              0.00021              0.00022         *
 * Si              8      0.00022              0.00022              0.00022         *
 *                                                                                  *
 ************************************************************************************
  
 +------------+-------------+-------------+-----------------+ <-- min BFGS
 |    Step    |   lambda    |   F.delta'  |    enthalpy     | <-- min BFGS
 +------------+-------------+-------------+-----------------+ <-- min BFGS
 |  previous  |    0.000000 |    0.000729 |     -858.475940 | <-- min BFGS
 | trial step |    1.000000 |    0.000221 |     -858.475940 | <-- min BFGS
 +------------+-------------+-------------+-----------------+ <-- min BFGS
  
 BFGS: finished iteration     2 with enthalpy= -8.58475940E+002 eV
  
 +-----------+-----------------+-----------------+------------+-----+ <-- BFGS
 | Parameter |      value      |    tolerance    |    units   | OK? | <-- BFGS
 +-----------+-----------------+-----------------+------------+-----+ <-- BFGS
 |  dE/ion   |   8.268404E-008 |   5.000000E-006 |         eV | Yes | <-- BFGS
 |  |F|max   |   3.741296E-004 |   1.000000E-002 |       eV/A | Yes | <-- BFGS
 |  |dR|max  |   5.200684E-005 |   5.000000E-004 |          A | Yes | <-- BFGS
 +-----------+-----------------+-----------------+------------+-----+ <-- BFGS
  
 BFGS: Geometry optimization completed successfully.

================================================================================
 BFGS: Final Configuration:
================================================================================
 
                           -------------------------------
                                     Cell Contents
                           -------------------------------
 
            xxxxxxxxxxxxxxxxxxxxxxxxxxxxxxxxxxxxxxxxxxxxxxxxxxxxxxxxxxxxxxxxx
            x  Element         Atom        Fractional coordinates of atoms  x
            x                 Number           u          v          w      x
            x---------------------------------------------------------------x
            x  Si                1         0.002126   0.002126   0.002126   x
            x  Si                2         0.002126   0.502126   0.502126   x
            x  Si                3         0.502126   0.002126   0.502126   x
            x  Si                4         0.502126   0.502126   0.002126   x
            x  Si                5         0.747874   0.247874   0.747874   x
            x  Si                6         0.247874   0.247874   0.247874   x
            x  Si                7         0.247874   0.747874   0.747874   x
            x  Si                8         0.747874   0.747874   0.247874   x
            xxxxxxxxxxxxxxxxxxxxxxxxxxxxxxxxxxxxxxxxxxxxxxxxxxxxxxxxxxxxxxxxx
 
 
 BFGS: Final Enthalpy     = -8.58475940E+002 eV
 BFGS: Final <frequency>  =     500.73756 cm-1
 
 ************************************** Forces **************************************
 *                                                                                  *
 *                           Cartesian components (eV/A)                            *
 * -------------------------------------------------------------------------------- *
 *                         x                    y                    z              *
 *                                                                                  *
 * Si              1     -0.00022             -0.00022             -0.00022         *
 * Si              2     -0.00022             -0.00022             -0.00022         *
 * Si              3     -0.00022             -0.00022             -0.00022         *
 * Si              4     -0.00022             -0.00022             -0.00022         *
 * Si              5      0.00022              0.00022              0.00022         *
 * Si              6      0.00022              0.00022              0.00022         *
 * Si              7      0.00022              0.00021              0.00022         *
 * Si              8      0.00022              0.00022              0.00022         *
 *                                                                                  *
 ************************************************************************************
 
 ***************** Stress Tensor *****************
 *                                               *
 *          Cartesian components (GPa)           *
 * --------------------------------------------- *
 *             x             y             z     *
 *                                               *
 *  x     -0.243006      3.020950      3.020953  *
 *  y      3.020950     -0.243007      3.020951  *
 *  z      3.020953      3.020951     -0.243005  *
 *                                               *
 *  Pressure:    0.2430                          *
 *                                               *
 *************************************************

Writing analysis data to Si.castep_bin

Writing model to Si.check
 
 A BibTeX formatted list of references used in this run has been written to 
 Si.bib
 
Initialisation time =      0.64 s
Calculation time    =    223.58 s
Finalisation time   =      0.56 s
Total time          =    224.78 s
  
Overall parallel efficiency rating: Excellent (99%)                             
  
Data was distributed by:-
k-point (8-way); efficiency rating: Excellent (99%)                             
  
Parallel notes:
1) Calculation only took 224.4 s, so efficiency estimates may be inaccurate.    
