 Job started on host YOS-20180822FRE
 at Fri May  3 03:25:41 2019

 +-------------------------------------------------+
 |                                                 |
 |      CCC   AA    SSS  TTTTT  EEEEE  PPPP        |
 |     C     A  A  S       T    E      P   P       |
 |     C     AAAA   SS     T    EEE    PPPP        |
 |     C     A  A     S    T    E      P           |
 |      CCC  A  A  SSS     T    EEEEE  P           |
 |                                                 |
 +-------------------------------------------------+
 |                                                 |
 | Materials Studio CASTEP version 2017 R2         |
 | Ab Initio Total Energy Program                  |
 |                                                 |
 | Authors:                                        |
 | M. Segall, M. Probert, C. Pickard, P. Hasnip,   |
 | S. Clark, K. Refson, J. R. Yates, M. Payne      |
 |                                                 |
 | Contributors:                                   |
 | P. Lindan, P. Haynes, J. White, V. Milman,      |
 | N. Govind, M. Gibson, P. Tulip, V. Cocula,      |
 | B. Montanari, D. Quigley, M. Glover,            |
 | L. Bernasconi, A. Perlov, M. Plummer,           |
 | E. McNellis, J. Meyer, J. Gale, D. Jochym       |
 | J. Aarons, B. Walker, R. Gillen, D. Jones       |
 | T. Green, I. J. Bush, C. J. Armstrong,          |
 | E. J. Higgins, E. L. Brown, M. S. McFly,        |
 | J. Wilkins, B-C. Shih, P. J. P. Byrne           |
 |                                                 |
 | Copyright (c) 2000 - 2016                       |
 |                                                 |
 | Please cite                                     |
 |                                                 |
 |     "First principles methods using CASTEP"     |
 |                                                 |
 |         Zeitschrift fuer Kristallographie       |
 |           220(5-6) pp. 567-570 (2005)           |
 |                                                 |
 | S. J. Clark, M. D. Segall, C. J. Pickard,       |
 | P. J. Hasnip, M. J. Probert, K. Refson,         |
 | M. C. Payne                                     |
 |                                                 |
 |       in all publications arising from          |
 |              your use of CASTEP                 |
 |                                                 |
 +-------------------------------------------------+
 
 
 This version was compiled for i686-windows-msvc2013 on Dec 07 2016
 Code version: 7217
 Intel(R) Math Kernel Library Version 11.1.2 
 Fundamental constants values: CODATA 2010
 
License checkout of MS_castep successful
 
 
 Pseudo atomic calculation performed for Si 3s2 3p2
 
 Converged in 17 iterations to a total energy of -101.9015 eV
 
 Calculation parallelised over 8 processes.
 Data is distributed by k-point(8-way)

 ************************************ Title ************************************
 CASTEP calculation from Materials Studio

 ***************************** General Parameters ******************************
  
 output verbosity                               : normal  (1)
 write checkpoint data to                       : Si.check
 type of calculation                            : geometry optimization
 stress calculation                             : on
 density difference calculation                 : off
 electron localisation func (ELF) calculation   : off
 Hirshfeld analysis                             : off
 unlimited duration calculation
 timing information                             : on
 memory usage estimate                          : on
 write final potential to formatted file        : off
 write final density to formatted file          : off
 write BibTeX reference list                    : on
 write OTFG pseudopotential files               : on
 write electrostatic potential file             : on
 write bands file                               : on
 checkpoint writing                             : both castep_bin and check files
  
 output         length unit                     : A
 output           mass unit                     : amu
 output           time unit                     : ps
 output         charge unit                     : e
 output           spin unit                     : hbar/2
 output         energy unit                     : eV
 output          force unit                     : eV/A
 output       velocity unit                     : A/ps
 output       pressure unit                     : GPa
 output     inv_length unit                     : 1/A
 output      frequency unit                     : cm-1
 output force constant unit                     : eV/A**2
 output         volume unit                     : A**3
 output   IR intensity unit                     : (D/A)**2/amu
 output         dipole unit                     : D
 output         efield unit                     : eV/A/e
 output        entropy unit                     : J/mol/K
  
 wavefunctions paging                           : none
 random number generator seed                   : randomised (32542919)
 data distribution                              : optimal for this architecture
 optimization strategy                          : balance speed and memory

 *********************** Exchange-Correlation Parameters ***********************
  
 using functional                               : Perdew Burke Ernzerhof
 relativistic treatment                         : Koelling-Harmon
 DFT+D: Semi-empirical dispersion correction    : off

 ************************* Pseudopotential Parameters **************************
  
 pseudopotential representation                 : reciprocal space
 <beta|phi> representation                      : reciprocal space
 spin-orbit coupling                            : off

 **************************** Basis Set Parameters *****************************
  
 plane wave basis set cut-off                   :   320.0000   eV
 size of standard grid                          :     2.0000
 size of   fine   grid                          :     3.0000
 size of   fine   gmax                          :    27.4938   1/A
 largest prime factor in FFT                    :          5
 finite basis set correction                    : automatic
 number of sample energies                      :          3
           sample  spacing                      :     5.0000   eV

 **************************** Electronic Parameters ****************************
  
 number of  electrons                           :  32.00    
 net charge of system                           :  0.000    
 treating system as non-spin-polarized
 number of bands                                :         16

 ********************* Electronic Minimization Parameters **********************
  
 Method: Treating system as non-metallic,
         and number of  SD  steps               :          1
         and number of  CG  steps               :          4
  
 total energy / atom convergence tol.           : 0.5000E-06   eV
 eigen-energy convergence tolerance             : 0.2500E-06   eV
 max force / atom convergence tol.              : ignored
 convergence tolerance window                   :          3   cycles
 max. number of SCF cycles                      :        100
 periodic dipole correction                     : NONE

 ************************** Density Mixing Parameters **************************
  
 density-mixing scheme                          : Pulay
 max. length of mixing history                  :         20
 charge density mixing amplitude                : 0.5000    
 cut-off energy for mixing                      :  320.0       eV
 charge density mixing g-vector                 :  1.500       1/A

 ********************** Geometry Optimization Parameters ***********************
  
 optimization method                            : BFGS
 variable cell method                           : fixed basis quality
 max. number of steps                           :        100
 estimated bulk modulus                         :  500.0       GPa
 estimated <frequency>                          :  1668.       cm-1
 geom line minimiser                            : on
 with line minimiser tolerance                  :     0.4000
 total energy convergence tolerance             : 0.5000E-05   eV/atom
        max ionic |force| tolerance             : 0.1000E-01   eV/A
 max ionic |displacement| tolerance             : 0.5000E-03   A
   max |stress component| tolerance             : 0.2000E-01   GPa
 convergence tolerance window                   :          2   steps
 backup results every                           :          5   steps
 write geom trajectory file                     : on

 *******************************************************************************
  
 
                           -------------------------------
                                      Unit Cell
                           -------------------------------
        Real Lattice(A)                      Reciprocal Lattice(1/A)
   5.4562709   0.2147025   0.2147024        1.1549944  -0.0437280  -0.0437280
   0.2147025   5.4562709   0.2147025       -0.0437280   1.1549944  -0.0437280
   0.2147025   0.2147025   5.4562710       -0.0437280  -0.0437280   1.1549944
 
                       Lattice parameters(A)       Cell Angles
                    a =    5.464713          alpha =   85.411434
                    b =    5.464713          beta  =   85.411435
                    c =    5.464713          gamma =   85.411434
 
                       Current cell volume =  161.703294       A**3
                                   density =    1.389483   AMU/A**3
                                           =    2.307291     g/cm^3
 
                           -------------------------------
                                     Cell Contents
                           -------------------------------
                         Total number of ions in cell =    8
                      Total number of species in cell =    1
                        Max number of any one species =    8
 
            xxxxxxxxxxxxxxxxxxxxxxxxxxxxxxxxxxxxxxxxxxxxxxxxxxxxxxxxxxxx
            x  Element    Atom        Fractional coordinates of atoms  x
            x            Number           u          v          w      x
            x----------------------------------------------------------x
            x  Si           1         0.000000  -0.000000  -0.000000   x 
            x  Si           2         0.000000   0.500000   0.500000   x 
            x  Si           3         0.500000   0.000000   0.500000   x 
            x  Si           4         0.500000   0.500000  -0.000000   x 
            x  Si           5         0.750000   0.250000   0.750000   x 
            x  Si           6         0.250000   0.250000   0.250000   x 
            x  Si           7         0.250000   0.750000   0.750000   x 
            x  Si           8         0.750000   0.750000   0.250000   x 
            xxxxxxxxxxxxxxxxxxxxxxxxxxxxxxxxxxxxxxxxxxxxxxxxxxxxxxxxxxxx
 
 
                         No user defined ionic velocities
 
                           -------------------------------
                                   Details of Species
                           -------------------------------
 
                               Mass of species in AMU
                                    Si   28.0849991
 
                          Electric Quadrupole Moment (Barn)
                                    Si    1.0000000 No Isotope Defined
 
                          Files used for pseudopotentials:
                                    Si D:\PROGRA~1\BIOVIA\MATERI~1.2\share\Resources\Quantum\Castep\Potentials\Si_00PBE.usp
 
                           -------------------------------
                              k-Points For BZ Sampling
                           -------------------------------
                       MP grid size for SCF calculation is  8  8  8
                            with an offset of   0.000  0.000  0.000
                       Number of kpoints used =           256
 
                           -------------------------------
                               Symmetry and Constraints
                           -------------------------------
 
                      Cell is a supercell containing 4 primitive cells
                      Maximum deviation from symmetry =  0.00000         ANG
 
                      Number of symmetry operations   =           1
         There are no ionic constraints specified or generated for this cell
                      Point group of crystal =     1: C1, 1, 1
                      Space group of crystal =   166: R-3m, -R 3 2"
 
             Set iprint > 1 for details on symmetry rotations/translations
 
                         Centre of mass is NOT constrained
 
                         Number of cell constraints= 6
                         Cell constraints are:  0 0 0 0 0 0
 
                         External pressure/stress (GPa)
                          0.00000   0.00000   0.00000
                                    0.00000   0.00000
                                              0.00000
  
+---------------- MEMORY AND SCRATCH DISK ESTIMATES PER PROCESS --------------+
|                                                     Memory          Disk    |
| Baseline code, static data and system overhead        0.0 MB         0.0 MB |
| BLAS internal memory storage                          0.0 MB         0.0 MB |
| Model and support data                               51.4 MB        31.0 MB |
| Electronic energy minimisation requirements          47.2 MB         0.0 MB |
| Force calculation requirements                       14.2 MB         0.0 MB |
| Stress calculation requirements                      17.5 MB         0.0 MB |
|                                               ----------------------------- |
| Approx. total storage required per process           98.6 MB        31.0 MB |
|                                                                             |
| Requirements will fluctuate during execution and may exceed these estimates |
+-----------------------------------------------------------------------------+
Calculating finite basis set correction with  3 cut-off energies.
Calculating total energy with cut-off of  310.000 eV.
------------------------------------------------------------------------ <-- SCF
SCF loop      Energy                           Energy gain       Timer   <-- SCF
                                               per atom          (sec)   <-- SCF
------------------------------------------------------------------------ <-- SCF
Initial   4.02496270E+002                                          1.78  <-- SCF
      1  -7.42253654E+002                    1.43093740E+002       9.44  <-- SCF
      2  -8.55071909E+002                    1.41022819E+001      15.43  <-- SCF
      3  -8.58408962E+002                    4.17131647E-001      20.69  <-- SCF
      4  -8.58009230E+002                   -4.99664831E-002      28.61  <-- SCF
      5  -8.57802576E+002                   -2.58317847E-002      35.30  <-- SCF
      6  -8.57815013E+002                    1.55454456E-003      43.43  <-- SCF
      7  -8.57816568E+002                    1.94470572E-004      50.56  <-- SCF
      8  -8.57816672E+002                    1.29362525E-005      57.28  <-- SCF
      9  -8.57816674E+002                    2.73872221E-007      62.03  <-- SCF
     10  -8.57816674E+002                    5.24592359E-008      66.77  <-- SCF
------------------------------------------------------------------------ <-- SCF
 
Final energy =  -857.8166744220     eV
(energy not corrected for finite basis set)
 
Calculating total energy with cut-off of  315.000 eV.
------------------------------------------------------------------------ <-- SCF
SCF loop      Energy                           Energy gain       Timer   <-- SCF
                                               per atom          (sec)   <-- SCF
------------------------------------------------------------------------ <-- SCF
Initial  -8.57816674E+002                                         69.03  <-- SCF
      1  -8.57818339E+002                    2.08082825E-004      75.22  <-- SCF
      2  -8.57818341E+002                    1.93803324E-007      80.17  <-- SCF
      3  -8.57818342E+002                    1.89935544E-007      85.08  <-- SCF
      4  -8.57818343E+002                    5.28250392E-008      89.90  <-- SCF
------------------------------------------------------------------------ <-- SCF
 
Final energy =  -857.8183425771     eV
(energy not corrected for finite basis set)
 
Calculating total energy with cut-off of  320.000 eV.
------------------------------------------------------------------------ <-- SCF
SCF loop      Energy                           Energy gain       Timer   <-- SCF
                                               per atom          (sec)   <-- SCF
------------------------------------------------------------------------ <-- SCF
Initial  -8.57818343E+002                                         92.18  <-- SCF
      1  -8.57819796E+002                    1.81731603E-004      98.36  <-- SCF
      2  -8.57819798E+002                    1.37519244E-007     103.19  <-- SCF
      3  -8.57819799E+002                    1.71749182E-007     107.98  <-- SCF
      4  -8.57819799E+002                    4.16853971E-008     112.80  <-- SCF
------------------------------------------------------------------------ <-- SCF
 
Final energy =  -857.8197992378     eV
(energy not corrected for finite basis set)
 
 For future reference: finite basis dEtot/dlog(Ecut) =      -0.097612eV
 Total energy corrected for finite basis set =    -857.819785 eV
 
+---------------- MEMORY AND SCRATCH DISK ESTIMATES PER PROCESS --------------+
|                                                     Memory          Disk    |
| Model and support data                               55.7 MB        31.0 MB |
| Electronic energy minimisation requirements          47.2 MB         0.0 MB |
| Geometry minimisation requirements                   66.3 MB         0.0 MB |
|                                               ----------------------------- |
| Approx. total storage required per process          169.2 MB        31.0 MB |
|                                                                             |
| Requirements will fluctuate during execution and may exceed these estimates |
+-----------------------------------------------------------------------------+
 
 
 ************************************** Forces **************************************
 *                                                                                  *
 *                           Cartesian components (eV/A)                            *
 * -------------------------------------------------------------------------------- *
 *                         x                    y                    z              *
 *                                                                                  *
 * Si              1      0.48071              0.48071              0.48071         *
 * Si              2      0.48071              0.48071              0.48071         *
 * Si              3      0.48071              0.48071              0.48071         *
 * Si              4      0.48071              0.48071              0.48071         *
 * Si              5     -0.48071             -0.48071             -0.48071         *
 * Si              6     -0.48071             -0.48071             -0.48071         *
 * Si              7     -0.48071             -0.48071             -0.48071         *
 * Si              8     -0.48071             -0.48072             -0.48071         *
 *                                                                                  *
 ************************************************************************************
 BFGS: finished iteration     0 with enthalpy= -8.57819799E+002 eV
  
 +-----------+-----------------+-----------------+------------+-----+ <-- BFGS
 | Parameter |      value      |    tolerance    |    units   | OK? | <-- BFGS
 +-----------+-----------------+-----------------+------------+-----+ <-- BFGS
 |  dE/ion   |   0.000000E+000 |   5.000000E-006 |         eV | No  | <-- BFGS
 |  |F|max   |   8.326190E-001 |   1.000000E-002 |       eV/A | No  | <-- BFGS
 |  |dR|max  |   0.000000E+000 |   5.000000E-004 |          A | No  | <-- BFGS
 +-----------+-----------------+-----------------+------------+-----+ <-- BFGS
  

================================================================================
 Starting BFGS iteration          1 ...
================================================================================
  
 +------------+-------------+-------------+-----------------+ <-- min BFGS
 |    Step    |   lambda    |   F.delta'  |    enthalpy     | <-- min BFGS
 +------------+-------------+-------------+-----------------+ <-- min BFGS
 |  previous  |    0.000000 |    0.509373 |     -857.819799 | <-- min BFGS
 +------------+-------------+-------------+-----------------+ <-- min BFGS
  

--------------------------------------------------------------------------------
 BFGS: starting iteration         1 with trial guess (lambda=  1.000000)
--------------------------------------------------------------------------------
 
                           -------------------------------
                                     Cell Contents
                           -------------------------------
 
            xxxxxxxxxxxxxxxxxxxxxxxxxxxxxxxxxxxxxxxxxxxxxxxxxxxxxxxxxxxxxxxxx
            x  Element         Atom        Fractional coordinates of atoms  x
            x                 Number           u          v          w      x
            x---------------------------------------------------------------x
            x  Si                1         0.000284   0.000284   0.000284   x
            x  Si                2         0.000284   0.500284   0.500284   x
            x  Si                3         0.500284   0.000284   0.500284   x
            x  Si                4         0.500284   0.500284   0.000284   x
            x  Si                5         0.749716   0.249716   0.749716   x
            x  Si                6         0.249716   0.249716   0.249716   x
            x  Si                7         0.249716   0.749716   0.749716   x
            x  Si                8         0.749716   0.749716   0.249716   x
            xxxxxxxxxxxxxxxxxxxxxxxxxxxxxxxxxxxxxxxxxxxxxxxxxxxxxxxxxxxxxxxxx
 
 
------------------------------------------------------------------------ <-- SCF
SCF loop      Energy                           Energy gain       Timer   <-- SCF
                                               per atom          (sec)   <-- SCF
------------------------------------------------------------------------ <-- SCF
Initial  -8.57741251E+002                                        116.97  <-- SCF
      1  -8.57838337E+002                    1.21357609E-002     123.23  <-- SCF
      2  -8.57838385E+002                    6.05353921E-006     131.45  <-- SCF
      3  -8.57838394E+002                    1.03678717E-006     136.22  <-- SCF
      4  -8.57838397E+002                    4.71446615E-007     140.96  <-- SCF
      5  -8.57838397E+002                    1.47304504E-008     145.75  <-- SCF
------------------------------------------------------------------------ <-- SCF
 
Final energy =  -857.8383974581     eV
(energy not corrected for finite basis set)
 
 
 ************************************** Forces **************************************
 *                                                                                  *
 *                           Cartesian components (eV/A)                            *
 * -------------------------------------------------------------------------------- *
 *                         x                    y                    z              *
 *                                                                                  *
 * Si              1      0.44543              0.44543              0.44543         *
 * Si              2      0.44543              0.44543              0.44543         *
 * Si              3      0.44543              0.44543              0.44543         *
 * Si              4      0.44543              0.44544              0.44543         *
 * Si              5     -0.44543             -0.44543             -0.44543         *
 * Si              6     -0.44543             -0.44543             -0.44543         *
 * Si              7     -0.44543             -0.44543             -0.44544         *
 * Si              8     -0.44543             -0.44543             -0.44543         *
 *                                                                                  *
 ************************************************************************************
  
 +------------+-------------+-------------+-----------------+ <-- min BFGS
 |    Step    |   lambda    |   F.delta'  |    enthalpy     | <-- min BFGS
 +------------+-------------+-------------+-----------------+ <-- min BFGS
 |  previous  |    0.000000 |    0.509373 |     -857.819799 | <-- min BFGS
 | trial step |    1.000000 |    0.471992 |     -857.838397 | <-- min BFGS
 +------------+-------------+-------------+-----------------+ <-- min BFGS
  

--------------------------------------------------------------------------------
 BFGS: improving iteration         1 with line minimization (lambda= 13.626677)
--------------------------------------------------------------------------------
 
                           -------------------------------
                                     Cell Contents
                           -------------------------------
 
            xxxxxxxxxxxxxxxxxxxxxxxxxxxxxxxxxxxxxxxxxxxxxxxxxxxxxxxxxxxxxxxxx
            x  Element         Atom        Fractional coordinates of atoms  x
            x                 Number           u          v          w      x
            x---------------------------------------------------------------x
            x  Si                1         0.003874   0.003874   0.003874   x
            x  Si                2         0.003874   0.503874   0.503874   x
            x  Si                3         0.503874   0.003874   0.503874   x
            x  Si                4         0.503874   0.503874   0.003874   x
            x  Si                5         0.746126   0.246126   0.746126   x
            x  Si                6         0.246126   0.246126   0.246126   x
            x  Si                7         0.246126   0.746126   0.746126   x
            x  Si                8         0.746126   0.746126   0.246126   x
            xxxxxxxxxxxxxxxxxxxxxxxxxxxxxxxxxxxxxxxxxxxxxxxxxxxxxxxxxxxxxxxxx
 
 
------------------------------------------------------------------------ <-- SCF
SCF loop      Energy                           Energy gain       Timer   <-- SCF
                                               per atom          (sec)   <-- SCF
------------------------------------------------------------------------ <-- SCF
Initial  -8.57004453E+002                                        149.82  <-- SCF
      1  -8.57940462E+002                    1.17001067E-001     156.16  <-- SCF
      2  -8.57948241E+002                    9.72426613E-004     164.49  <-- SCF
      3  -8.57949427E+002                    1.48316399E-004     171.98  <-- SCF
      4  -8.57949951E+002                    6.54746401E-005     178.90  <-- SCF
      5  -8.57949954E+002                    3.51599196E-007     184.16  <-- SCF
      6  -8.57949957E+002                    3.20473420E-007     189.01  <-- SCF
      7  -8.57949957E+002                    6.99774819E-008     193.91  <-- SCF
------------------------------------------------------------------------ <-- SCF
 
Final energy =  -857.9499571874     eV
(energy not corrected for finite basis set)
 
 
 ************************************** Forces **************************************
 *                                                                                  *
 *                           Cartesian components (eV/A)                            *
 * -------------------------------------------------------------------------------- *
 *                         x                    y                    z              *
 *                                                                                  *
 * Si              1     -0.00834             -0.00834             -0.00834         *
 * Si              2     -0.00834             -0.00834             -0.00834         *
 * Si              3     -0.00834             -0.00834             -0.00834         *
 * Si              4     -0.00834             -0.00834             -0.00834         *
 * Si              5      0.00834              0.00834              0.00834         *
 * Si              6      0.00834              0.00834              0.00834         *
 * Si              7      0.00834              0.00834              0.00834         *
 * Si              8      0.00834              0.00834              0.00834         *
 *                                                                                  *
 ************************************************************************************
  
 +------------+-------------+-------------+-----------------+ <-- min BFGS
 |    Step    |   lambda    |   F.delta'  |    enthalpy     | <-- min BFGS
 +------------+-------------+-------------+-----------------+ <-- min BFGS
 |  previous  |    0.000000 |    0.509373 |     -857.819799 | <-- min BFGS
 | trial step |    1.000000 |    0.471992 |     -857.838397 | <-- min BFGS
 |  line step |   13.626677 |   -0.008834 |     -857.949957 | <-- min BFGS
 +------------+-------------+-------------+-----------------+ <-- min BFGS
  
 BFGS: finished iteration     1 with enthalpy= -8.57949957E+002 eV
  
 +-----------+-----------------+-----------------+------------+-----+ <-- BFGS
 | Parameter |      value      |    tolerance    |    units   | OK? | <-- BFGS
 +-----------+-----------------+-----------------+------------+-----+ <-- BFGS
 |  dE/ion   |   1.626974E-002 |   5.000000E-006 |         eV | No  | <-- BFGS
 |  |F|max   |   1.444289E-002 |   1.000000E-002 |       eV/A | No  | <-- BFGS
 |  |dR|max  |   3.949330E-002 |   5.000000E-004 |          A | No  | <-- BFGS
 +-----------+-----------------+-----------------+------------+-----+ <-- BFGS
  

================================================================================
 Starting BFGS iteration          2 ...
================================================================================
  
 +------------+-------------+-------------+-----------------+ <-- min BFGS
 |    Step    |   lambda    |   F.delta'  |    enthalpy     | <-- min BFGS
 +------------+-------------+-------------+-----------------+ <-- min BFGS
 |  previous  |    0.000000 |    0.008834 |     -857.949957 | <-- min BFGS
 +------------+-------------+-------------+-----------------+ <-- min BFGS
  

--------------------------------------------------------------------------------
 BFGS: starting iteration         2 with trial guess (lambda=  1.000000)
--------------------------------------------------------------------------------
 
                           -------------------------------
                                     Cell Contents
                           -------------------------------
 
            xxxxxxxxxxxxxxxxxxxxxxxxxxxxxxxxxxxxxxxxxxxxxxxxxxxxxxxxxxxxxxxxx
            x  Element         Atom        Fractional coordinates of atoms  x
            x                 Number           u          v          w      x
            x---------------------------------------------------------------x
            x  Si                1         0.003808   0.003808   0.003808   x
            x  Si                2         0.003808   0.503808   0.503808   x
            x  Si                3         0.503808   0.003808   0.503808   x
            x  Si                4         0.503808   0.503808   0.003808   x
            x  Si                5         0.746192   0.246192   0.746192   x
            x  Si                6         0.246192   0.246192   0.246192   x
            x  Si                7         0.246192   0.746192   0.746192   x
            x  Si                8         0.746192   0.746192   0.246192   x
            xxxxxxxxxxxxxxxxxxxxxxxxxxxxxxxxxxxxxxxxxxxxxxxxxxxxxxxxxxxxxxxxx
 
 
------------------------------------------------------------------------ <-- SCF
SCF loop      Energy                           Energy gain       Timer   <-- SCF
                                               per atom          (sec)   <-- SCF
------------------------------------------------------------------------ <-- SCF
Initial  -8.57967879E+002                                        198.04  <-- SCF
      1  -8.57949992E+002                   -2.23596620E-003     204.28  <-- SCF
      2  -8.57949993E+002                    2.35305983E-007     209.15  <-- SCF
      3  -8.57949994E+002                    8.62693665E-008     213.97  <-- SCF
      4  -8.57949994E+002                    3.58280125E-008     218.79  <-- SCF
------------------------------------------------------------------------ <-- SCF
 
Final energy =  -857.9499944270     eV
(energy not corrected for finite basis set)
 
 
 ************************************** Forces **************************************
 *                                                                                  *
 *                           Cartesian components (eV/A)                            *
 * -------------------------------------------------------------------------------- *
 *                         x                    y                    z              *
 *                                                                                  *
 * Si              1      0.00064              0.00064              0.00064         *
 * Si              2      0.00064              0.00064              0.00064         *
 * Si              3      0.00064              0.00064              0.00064         *
 * Si              4      0.00064              0.00065              0.00064         *
 * Si              5     -0.00064             -0.00064             -0.00064         *
 * Si              6     -0.00065             -0.00064             -0.00064         *
 * Si              7     -0.00064             -0.00064             -0.00064         *
 * Si              8     -0.00064             -0.00064             -0.00064         *
 *                                                                                  *
 ************************************************************************************
  
 +------------+-------------+-------------+-----------------+ <-- min BFGS
 |    Step    |   lambda    |   F.delta'  |    enthalpy     | <-- min BFGS
 +------------+-------------+-------------+-----------------+ <-- min BFGS
 |  previous  |    0.000000 |    0.008834 |     -857.949957 | <-- min BFGS
 | trial step |    1.000000 |   -0.000682 |     -857.949994 | <-- min BFGS
 +------------+-------------+-------------+-----------------+ <-- min BFGS
  
 BFGS: finished iteration     2 with enthalpy= -8.57949994E+002 eV
  
 +-----------+-----------------+-----------------+------------+-----+ <-- BFGS
 | Parameter |      value      |    tolerance    |    units   | OK? | <-- BFGS
 +-----------+-----------------+-----------------+------------+-----+ <-- BFGS
 |  dE/ion   |   4.654953E-006 |   5.000000E-006 |         eV | Yes | <-- BFGS
 |  |F|max   |   1.117400E-003 |   1.000000E-002 |       eV/A | Yes | <-- BFGS
 |  |dR|max  |   6.732876E-004 |   5.000000E-004 |          A | No  | <-- BFGS
 +-----------+-----------------+-----------------+------------+-----+ <-- BFGS
  

================================================================================
 Starting BFGS iteration          3 ...
================================================================================
  
 +------------+-------------+-------------+-----------------+ <-- min BFGS
 |    Step    |   lambda    |   F.delta'  |    enthalpy     | <-- min BFGS
 +------------+-------------+-------------+-----------------+ <-- min BFGS
 |  previous  |    0.000000 |    0.000682 |     -857.949994 | <-- min BFGS
 +------------+-------------+-------------+-----------------+ <-- min BFGS
  

--------------------------------------------------------------------------------
 BFGS: starting iteration         3 with trial guess (lambda=  1.000000)
--------------------------------------------------------------------------------
 
                           -------------------------------
                                     Cell Contents
                           -------------------------------
 
            xxxxxxxxxxxxxxxxxxxxxxxxxxxxxxxxxxxxxxxxxxxxxxxxxxxxxxxxxxxxxxxxx
            x  Element         Atom        Fractional coordinates of atoms  x
            x                 Number           u          v          w      x
            x---------------------------------------------------------------x
            x  Si                1         0.003813   0.003813   0.003813   x
            x  Si                2         0.003813   0.503813   0.503813   x
            x  Si                3         0.503813   0.003813   0.503813   x
            x  Si                4         0.503813   0.503813   0.003813   x
            x  Si                5         0.746187   0.246187   0.746187   x
            x  Si                6         0.246187   0.246187   0.246187   x
            x  Si                7         0.246187   0.746187   0.746187   x
            x  Si                8         0.746187   0.746187   0.246187   x
            xxxxxxxxxxxxxxxxxxxxxxxxxxxxxxxxxxxxxxxxxxxxxxxxxxxxxxxxxxxxxxxxx
 
 
------------------------------------------------------------------------ <-- SCF
SCF loop      Energy                           Energy gain       Timer   <-- SCF
                                               per atom          (sec)   <-- SCF
------------------------------------------------------------------------ <-- SCF
Initial  -8.57948598E+002                                        222.96  <-- SCF
      1  -8.57949995E+002                    1.74600790E-004     227.14  <-- SCF
      2  -8.57949995E+002                    6.50165818E-009     231.97  <-- SCF
      3  -8.57949995E+002                    2.20698877E-009     236.86  <-- SCF
      4  -8.57949995E+002                    5.64674353E-010     241.60  <-- SCF
------------------------------------------------------------------------ <-- SCF
 
Final energy =  -857.9499945884     eV
(energy not corrected for finite basis set)
 
 
 ************************************** Forces **************************************
 *                                                                                  *
 *                           Cartesian components (eV/A)                            *
 * -------------------------------------------------------------------------------- *
 *                         x                    y                    z              *
 *                                                                                  *
 * Si              1     -0.00024             -0.00024             -0.00024         *
 * Si              2     -0.00024             -0.00024             -0.00024         *
 * Si              3     -0.00024             -0.00024             -0.00024         *
 * Si              4     -0.00024             -0.00024             -0.00024         *
 * Si              5      0.00024              0.00024              0.00024         *
 * Si              6      0.00024              0.00024              0.00024         *
 * Si              7      0.00024              0.00024              0.00024         *
 * Si              8      0.00024              0.00025              0.00024         *
 *                                                                                  *
 ************************************************************************************
  
 +------------+-------------+-------------+-----------------+ <-- min BFGS
 |    Step    |   lambda    |   F.delta'  |    enthalpy     | <-- min BFGS
 +------------+-------------+-------------+-----------------+ <-- min BFGS
 |  previous  |    0.000000 |    0.000682 |     -857.949994 | <-- min BFGS
 | trial step |    1.000000 |   -0.000258 |     -857.949995 | <-- min BFGS
 +------------+-------------+-------------+-----------------+ <-- min BFGS
  
 BFGS: finished iteration     3 with enthalpy= -8.57949995E+002 eV
  
 +-----------+-----------------+-----------------+------------+-----+ <-- BFGS
 | Parameter |      value      |    tolerance    |    units   | OK? | <-- BFGS
 +-----------+-----------------+-----------------+------------+-----+ <-- BFGS
 |  dE/ion   |   2.017940E-008 |   5.000000E-006 |         eV | Yes | <-- BFGS
 |  |F|max   |   4.231443E-004 |   1.000000E-002 |       eV/A | Yes | <-- BFGS
 |  |dR|max  |   4.826678E-005 |   5.000000E-004 |          A | Yes | <-- BFGS
 +-----------+-----------------+-----------------+------------+-----+ <-- BFGS
  
 BFGS: Geometry optimization completed successfully.

================================================================================
 BFGS: Final Configuration:
================================================================================
 
                           -------------------------------
                                     Cell Contents
                           -------------------------------
 
            xxxxxxxxxxxxxxxxxxxxxxxxxxxxxxxxxxxxxxxxxxxxxxxxxxxxxxxxxxxxxxxxx
            x  Element         Atom        Fractional coordinates of atoms  x
            x                 Number           u          v          w      x
            x---------------------------------------------------------------x
            x  Si                1         0.003813   0.003813   0.003813   x
            x  Si                2         0.003813   0.503813   0.503813   x
            x  Si                3         0.503813   0.003813   0.503813   x
            x  Si                4         0.503813   0.503813   0.003813   x
            x  Si                5         0.746187   0.246187   0.746187   x
            x  Si                6         0.246187   0.246187   0.246187   x
            x  Si                7         0.246187   0.746187   0.746187   x
            x  Si                8         0.746187   0.746187   0.246187   x
            xxxxxxxxxxxxxxxxxxxxxxxxxxxxxxxxxxxxxxxxxxxxxxxxxxxxxxxxxxxxxxxxx
 
 
 BFGS: Final Enthalpy     = -8.57949995E+002 eV
 BFGS: Final <frequency>  =     493.22455 cm-1
 
 ************************************** Forces **************************************
 *                                                                                  *
 *                           Cartesian components (eV/A)                            *
 * -------------------------------------------------------------------------------- *
 *                         x                    y                    z              *
 *                                                                                  *
 * Si              1     -0.00024             -0.00024             -0.00024         *
 * Si              2     -0.00024             -0.00024             -0.00024         *
 * Si              3     -0.00024             -0.00024             -0.00024         *
 * Si              4     -0.00024             -0.00024             -0.00024         *
 * Si              5      0.00024              0.00024              0.00024         *
 * Si              6      0.00024              0.00024              0.00024         *
 * Si              7      0.00024              0.00024              0.00024         *
 * Si              8      0.00024              0.00025              0.00024         *
 *                                                                                  *
 ************************************************************************************
 
 ***************** Stress Tensor *****************
 *                                               *
 *          Cartesian components (GPa)           *
 * --------------------------------------------- *
 *             x             y             z     *
 *                                               *
 *  x     -0.932559      6.029608      6.029607  *
 *  y      6.029608     -0.932560      6.029608  *
 *  z      6.029607      6.029608     -0.932559  *
 *                                               *
 *  Pressure:    0.9326                          *
 *                                               *
 *************************************************

Writing analysis data to Si.castep_bin

Writing model to Si.check
 
 A BibTeX formatted list of references used in this run has been written to 
 Si.bib
 
Initialisation time =      0.66 s
Calculation time    =    252.82 s
Finalisation time   =      0.55 s
Total time          =    254.02 s
  
Overall parallel efficiency rating: Excellent (99%)                             
  
Data was distributed by:-
k-point (8-way); efficiency rating: Excellent (99%)                             
  
Parallel notes:
1) Calculation only took 253.6 s, so efficiency estimates may be inaccurate.    
