 Job started on host YOS-20180822FRE
 at Fri May  3 03:17:38 2019

 +-------------------------------------------------+
 |                                                 |
 |      CCC   AA    SSS  TTTTT  EEEEE  PPPP        |
 |     C     A  A  S       T    E      P   P       |
 |     C     AAAA   SS     T    EEE    PPPP        |
 |     C     A  A     S    T    E      P           |
 |      CCC  A  A  SSS     T    EEEEE  P           |
 |                                                 |
 +-------------------------------------------------+
 |                                                 |
 | Materials Studio CASTEP version 2017 R2         |
 | Ab Initio Total Energy Program                  |
 |                                                 |
 | Authors:                                        |
 | M. Segall, M. Probert, C. Pickard, P. Hasnip,   |
 | S. Clark, K. Refson, J. R. Yates, M. Payne      |
 |                                                 |
 | Contributors:                                   |
 | P. Lindan, P. Haynes, J. White, V. Milman,      |
 | N. Govind, M. Gibson, P. Tulip, V. Cocula,      |
 | B. Montanari, D. Quigley, M. Glover,            |
 | L. Bernasconi, A. Perlov, M. Plummer,           |
 | E. McNellis, J. Meyer, J. Gale, D. Jochym       |
 | J. Aarons, B. Walker, R. Gillen, D. Jones       |
 | T. Green, I. J. Bush, C. J. Armstrong,          |
 | E. J. Higgins, E. L. Brown, M. S. McFly,        |
 | J. Wilkins, B-C. Shih, P. J. P. Byrne           |
 |                                                 |
 | Copyright (c) 2000 - 2016                       |
 |                                                 |
 | Please cite                                     |
 |                                                 |
 |     "First principles methods using CASTEP"     |
 |                                                 |
 |         Zeitschrift fuer Kristallographie       |
 |           220(5-6) pp. 567-570 (2005)           |
 |                                                 |
 | S. J. Clark, M. D. Segall, C. J. Pickard,       |
 | P. J. Hasnip, M. J. Probert, K. Refson,         |
 | M. C. Payne                                     |
 |                                                 |
 |       in all publications arising from          |
 |              your use of CASTEP                 |
 |                                                 |
 +-------------------------------------------------+
 
 
 This version was compiled for i686-windows-msvc2013 on Dec 07 2016
 Code version: 7217
 Intel(R) Math Kernel Library Version 11.1.2 
 Fundamental constants values: CODATA 2010
 
License checkout of MS_castep successful
 
 
 Pseudo atomic calculation performed for Si 3s2 3p2
 
 Converged in 17 iterations to a total energy of -101.9015 eV
 
 Calculation parallelised over 8 processes.
 Data is distributed by k-point(8-way)

 ************************************ Title ************************************
 CASTEP calculation from Materials Studio

 ***************************** General Parameters ******************************
  
 output verbosity                               : normal  (1)
 write checkpoint data to                       : Si.check
 type of calculation                            : geometry optimization
 stress calculation                             : on
 density difference calculation                 : off
 electron localisation func (ELF) calculation   : off
 Hirshfeld analysis                             : off
 unlimited duration calculation
 timing information                             : on
 memory usage estimate                          : on
 write final potential to formatted file        : off
 write final density to formatted file          : off
 write BibTeX reference list                    : on
 write OTFG pseudopotential files               : on
 write electrostatic potential file             : on
 write bands file                               : on
 checkpoint writing                             : both castep_bin and check files
  
 output         length unit                     : A
 output           mass unit                     : amu
 output           time unit                     : ps
 output         charge unit                     : e
 output           spin unit                     : hbar/2
 output         energy unit                     : eV
 output          force unit                     : eV/A
 output       velocity unit                     : A/ps
 output       pressure unit                     : GPa
 output     inv_length unit                     : 1/A
 output      frequency unit                     : cm-1
 output force constant unit                     : eV/A**2
 output         volume unit                     : A**3
 output   IR intensity unit                     : (D/A)**2/amu
 output         dipole unit                     : D
 output         efield unit                     : eV/A/e
 output        entropy unit                     : J/mol/K
  
 wavefunctions paging                           : none
 random number generator seed                   : randomised (31739046)
 data distribution                              : optimal for this architecture
 optimization strategy                          : balance speed and memory

 *********************** Exchange-Correlation Parameters ***********************
  
 using functional                               : Perdew Burke Ernzerhof
 relativistic treatment                         : Koelling-Harmon
 DFT+D: Semi-empirical dispersion correction    : off

 ************************* Pseudopotential Parameters **************************
  
 pseudopotential representation                 : reciprocal space
 <beta|phi> representation                      : reciprocal space
 spin-orbit coupling                            : off

 **************************** Basis Set Parameters *****************************
  
 plane wave basis set cut-off                   :   320.0000   eV
 size of standard grid                          :     2.0000
 size of   fine   grid                          :     3.0000
 size of   fine   gmax                          :    27.4938   1/A
 largest prime factor in FFT                    :          5
 finite basis set correction                    : automatic
 number of sample energies                      :          3
           sample  spacing                      :     5.0000   eV

 **************************** Electronic Parameters ****************************
  
 number of  electrons                           :  32.00    
 net charge of system                           :  0.000    
 treating system as non-spin-polarized
 number of bands                                :         16

 ********************* Electronic Minimization Parameters **********************
  
 Method: Treating system as non-metallic,
         and number of  SD  steps               :          1
         and number of  CG  steps               :          4
  
 total energy / atom convergence tol.           : 0.5000E-06   eV
 eigen-energy convergence tolerance             : 0.2500E-06   eV
 max force / atom convergence tol.              : ignored
 convergence tolerance window                   :          3   cycles
 max. number of SCF cycles                      :        100
 periodic dipole correction                     : NONE

 ************************** Density Mixing Parameters **************************
  
 density-mixing scheme                          : Pulay
 max. length of mixing history                  :         20
 charge density mixing amplitude                : 0.5000    
 cut-off energy for mixing                      :  320.0       eV
 charge density mixing g-vector                 :  1.500       1/A

 ********************** Geometry Optimization Parameters ***********************
  
 optimization method                            : BFGS
 variable cell method                           : fixed basis quality
 max. number of steps                           :        100
 estimated bulk modulus                         :  500.0       GPa
 estimated <frequency>                          :  1668.       cm-1
 geom line minimiser                            : on
 with line minimiser tolerance                  :     0.4000
 total energy convergence tolerance             : 0.5000E-05   eV/atom
        max ionic |force| tolerance             : 0.1000E-01   eV/A
 max ionic |displacement| tolerance             : 0.5000E-03   A
   max |stress component| tolerance             : 0.2000E-01   GPa
 convergence tolerance window                   :          2   steps
 backup results every                           :          5   steps
 write geom trajectory file                     : on

 *******************************************************************************
  
 
                           -------------------------------
                                      Unit Cell
                           -------------------------------
        Real Lattice(A)                      Reciprocal Lattice(1/A)
   5.4624798  -0.1104557  -0.1104557        1.1512050   0.0237587   0.0237587
  -0.1104557   5.4624798  -0.1104557        0.0237587   1.1512050   0.0237587
  -0.1104557  -0.1104557   5.4624799        0.0237587   0.0237587   1.1512050
 
                       Lattice parameters(A)       Cell Angles
                    a =    5.464713          alpha =   92.292443
                    b =    5.464713          beta  =   92.292443
                    c =    5.464713          gamma =   92.292443
 
                       Current cell volume =  162.790590       A**3
                                   density =    1.380203   AMU/A**3
                                           =    2.291880     g/cm^3
 
                           -------------------------------
                                     Cell Contents
                           -------------------------------
                         Total number of ions in cell =    8
                      Total number of species in cell =    1
                        Max number of any one species =    8
 
            xxxxxxxxxxxxxxxxxxxxxxxxxxxxxxxxxxxxxxxxxxxxxxxxxxxxxxxxxxxx
            x  Element    Atom        Fractional coordinates of atoms  x
            x            Number           u          v          w      x
            x----------------------------------------------------------x
            x  Si           1         0.000000  -0.000000  -0.000000   x 
            x  Si           2         0.000000   0.500000   0.500000   x 
            x  Si           3         0.500000   0.000000   0.500000   x 
            x  Si           4         0.500000   0.500000  -0.000000   x 
            x  Si           5         0.750000   0.250000   0.750000   x 
            x  Si           6         0.250000   0.250000   0.250000   x 
            x  Si           7         0.250000   0.750000   0.750000   x 
            x  Si           8         0.750000   0.750000   0.250000   x 
            xxxxxxxxxxxxxxxxxxxxxxxxxxxxxxxxxxxxxxxxxxxxxxxxxxxxxxxxxxxx
 
 
                         No user defined ionic velocities
 
                           -------------------------------
                                   Details of Species
                           -------------------------------
 
                               Mass of species in AMU
                                    Si   28.0849991
 
                          Electric Quadrupole Moment (Barn)
                                    Si    1.0000000 No Isotope Defined
 
                          Files used for pseudopotentials:
                                    Si D:\PROGRA~1\BIOVIA\MATERI~1.2\share\Resources\Quantum\Castep\Potentials\Si_00PBE.usp
 
                           -------------------------------
                              k-Points For BZ Sampling
                           -------------------------------
                       MP grid size for SCF calculation is  8  8  8
                            with an offset of   0.000  0.000  0.000
                       Number of kpoints used =           256
 
                           -------------------------------
                               Symmetry and Constraints
                           -------------------------------
 
                      Cell is a supercell containing 4 primitive cells
                      Maximum deviation from symmetry =  0.00000         ANG
 
                      Number of symmetry operations   =           1
         There are no ionic constraints specified or generated for this cell
                      Point group of crystal =     1: C1, 1, 1
                      Space group of crystal =   166: R-3m, -R 3 2"
 
             Set iprint > 1 for details on symmetry rotations/translations
 
                         Centre of mass is NOT constrained
 
                         Number of cell constraints= 6
                         Cell constraints are:  0 0 0 0 0 0
 
                         External pressure/stress (GPa)
                          0.00000   0.00000   0.00000
                                    0.00000   0.00000
                                              0.00000
  
+---------------- MEMORY AND SCRATCH DISK ESTIMATES PER PROCESS --------------+
|                                                     Memory          Disk    |
| Baseline code, static data and system overhead        0.0 MB         0.0 MB |
| BLAS internal memory storage                          0.0 MB         0.0 MB |
| Model and support data                               52.2 MB        31.0 MB |
| Electronic energy minimisation requirements          47.6 MB         0.0 MB |
| Force calculation requirements                       14.2 MB         0.0 MB |
| Stress calculation requirements                      17.5 MB         0.0 MB |
|                                               ----------------------------- |
| Approx. total storage required per process           99.8 MB        31.0 MB |
|                                                                             |
| Requirements will fluctuate during execution and may exceed these estimates |
+-----------------------------------------------------------------------------+
Calculating finite basis set correction with  3 cut-off energies.
Calculating total energy with cut-off of  310.000 eV.
------------------------------------------------------------------------ <-- SCF
SCF loop      Energy                           Energy gain       Timer   <-- SCF
                                               per atom          (sec)   <-- SCF
------------------------------------------------------------------------ <-- SCF
Initial   4.02351758E+002                                          1.79  <-- SCF
      1  -7.40827562E+002                    1.42897415E+002       9.53  <-- SCF
      2  -8.55404922E+002                    1.43221700E+001      15.54  <-- SCF
      3  -8.58830187E+002                    4.28158169E-001      20.90  <-- SCF
      4  -8.58548537E+002                   -3.52062831E-002      29.17  <-- SCF
      5  -8.58373838E+002                   -2.18373170E-002      35.91  <-- SCF
      6  -8.58386836E+002                    1.62475767E-003      43.91  <-- SCF
      7  -8.58388095E+002                    1.57350914E-004      51.14  <-- SCF
      8  -8.58388157E+002                    7.77014818E-006      57.72  <-- SCF
      9  -8.58388159E+002                    2.47107348E-007      62.49  <-- SCF
     10  -8.58388159E+002                    3.53592511E-008      67.28  <-- SCF
------------------------------------------------------------------------ <-- SCF
 
Final energy =  -858.3881594915     eV
(energy not corrected for finite basis set)
 
Calculating total energy with cut-off of  315.000 eV.
------------------------------------------------------------------------ <-- SCF
SCF loop      Energy                           Energy gain       Timer   <-- SCF
                                               per atom          (sec)   <-- SCF
------------------------------------------------------------------------ <-- SCF
Initial  -8.58388159E+002                                         69.55  <-- SCF
      1  -8.58389749E+002                    1.98701223E-004      75.79  <-- SCF
      2  -8.58389750E+002                    1.74257094E-007      80.65  <-- SCF
      3  -8.58389752E+002                    1.98272285E-007      85.55  <-- SCF
      4  -8.58389752E+002                    3.69596814E-008      90.36  <-- SCF
------------------------------------------------------------------------ <-- SCF
 
Final energy =  -858.3897523754     eV
(energy not corrected for finite basis set)
 
Calculating total energy with cut-off of  320.000 eV.
------------------------------------------------------------------------ <-- SCF
SCF loop      Energy                           Energy gain       Timer   <-- SCF
                                               per atom          (sec)   <-- SCF
------------------------------------------------------------------------ <-- SCF
Initial  -8.58389752E+002                                         92.62  <-- SCF
      1  -8.58391081E+002                    1.66110369E-004      98.84  <-- SCF
      2  -8.58391082E+002                    1.28446642E-007     103.79  <-- SCF
      3  -8.58391084E+002                    1.72365880E-007     108.78  <-- SCF
      4  -8.58391084E+002                    2.68335118E-008     113.66  <-- SCF
------------------------------------------------------------------------ <-- SCF
 
Final energy =  -858.3910838801     eV
(energy not corrected for finite basis set)
 
 For future reference: finite basis dEtot/dlog(Ecut) =      -0.091904eV
 Total energy corrected for finite basis set =    -858.391078 eV
 
+---------------- MEMORY AND SCRATCH DISK ESTIMATES PER PROCESS --------------+
|                                                     Memory          Disk    |
| Model and support data                               56.2 MB        31.0 MB |
| Electronic energy minimisation requirements          47.6 MB         0.0 MB |
| Geometry minimisation requirements                   66.8 MB         0.0 MB |
|                                               ----------------------------- |
| Approx. total storage required per process          170.6 MB        31.0 MB |
|                                                                             |
| Requirements will fluctuate during execution and may exceed these estimates |
+-----------------------------------------------------------------------------+
 
 
 ************************************** Forces **************************************
 *                                                                                  *
 *                           Cartesian components (eV/A)                            *
 * -------------------------------------------------------------------------------- *
 *                         x                    y                    z              *
 *                                                                                  *
 * Si              1     -0.44833             -0.44833             -0.44832         *
 * Si              2     -0.44833             -0.44832             -0.44833         *
 * Si              3     -0.44833             -0.44832             -0.44832         *
 * Si              4     -0.44833             -0.44832             -0.44833         *
 * Si              5      0.44833              0.44832              0.44832         *
 * Si              6      0.44832              0.44833              0.44832         *
 * Si              7      0.44833              0.44832              0.44832         *
 * Si              8      0.44833              0.44832              0.44833         *
 *                                                                                  *
 ************************************************************************************
 BFGS: finished iteration     0 with enthalpy= -8.58391084E+002 eV
  
 +-----------+-----------------+-----------------+------------+-----+ <-- BFGS
 | Parameter |      value      |    tolerance    |    units   | OK? | <-- BFGS
 +-----------+-----------------+-----------------+------------+-----+ <-- BFGS
 |  dE/ion   |   0.000000E+000 |   5.000000E-006 |         eV | No  | <-- BFGS
 |  |F|max   |   7.765232E-001 |   1.000000E-002 |       eV/A | No  | <-- BFGS
 |  |dR|max  |   0.000000E+000 |   5.000000E-004 |          A | No  | <-- BFGS
 +-----------+-----------------+-----------------+------------+-----+ <-- BFGS
  

================================================================================
 Starting BFGS iteration          1 ...
================================================================================
  
 +------------+-------------+-------------+-----------------+ <-- min BFGS
 |    Step    |   lambda    |   F.delta'  |    enthalpy     | <-- min BFGS
 +------------+-------------+-------------+-----------------+ <-- min BFGS
 |  previous  |    0.000000 |    0.423067 |     -858.391084 | <-- min BFGS
 +------------+-------------+-------------+-----------------+ <-- min BFGS
  

--------------------------------------------------------------------------------
 BFGS: starting iteration         1 with trial guess (lambda=  1.000000)
--------------------------------------------------------------------------------
 
                           -------------------------------
                                     Cell Contents
                           -------------------------------
 
            xxxxxxxxxxxxxxxxxxxxxxxxxxxxxxxxxxxxxxxxxxxxxxxxxxxxxxxxxxxxxxxxx
            x  Element         Atom        Fractional coordinates of atoms  x
            x                 Number           u          v          w      x
            x---------------------------------------------------------------x
            x  Si                1        -0.000298  -0.000298  -0.000298   x
            x  Si                2        -0.000298   0.499702   0.499702   x
            x  Si                3         0.499702  -0.000298   0.499702   x
            x  Si                4         0.499702   0.499702  -0.000298   x
            x  Si                5         0.750298   0.250298   0.750298   x
            x  Si                6         0.250298   0.250298   0.250298   x
            x  Si                7         0.250298   0.750298   0.750298   x
            x  Si                8         0.750298   0.750298   0.250298   x
            xxxxxxxxxxxxxxxxxxxxxxxxxxxxxxxxxxxxxxxxxxxxxxxxxxxxxxxxxxxxxxxxx
 
 
------------------------------------------------------------------------ <-- SCF
SCF loop      Energy                           Energy gain       Timer   <-- SCF
                                               per atom          (sec)   <-- SCF
------------------------------------------------------------------------ <-- SCF
Initial  -8.58356299E+002                                        117.84  <-- SCF
      1  -8.58406889E+002                    6.32377371E-003     124.11  <-- SCF
      2  -8.58406933E+002                    5.39682179E-006     132.46  <-- SCF
      3  -8.58406932E+002                   -9.38998176E-008     137.37  <-- SCF
      4  -8.58406933E+002                    1.64353674E-007     142.30  <-- SCF
------------------------------------------------------------------------ <-- SCF
 
Final energy =  -858.4069331360     eV
(energy not corrected for finite basis set)
 
 
 ************************************** Forces **************************************
 *                                                                                  *
 *                           Cartesian components (eV/A)                            *
 * -------------------------------------------------------------------------------- *
 *                         x                    y                    z              *
 *                                                                                  *
 * Si              1     -0.39846             -0.39846             -0.39846         *
 * Si              2     -0.39846             -0.39846             -0.39846         *
 * Si              3     -0.39846             -0.39846             -0.39846         *
 * Si              4     -0.39846             -0.39846             -0.39846         *
 * Si              5      0.39846              0.39846              0.39846         *
 * Si              6      0.39846              0.39846              0.39846         *
 * Si              7      0.39846              0.39846              0.39846         *
 * Si              8      0.39846              0.39846              0.39846         *
 *                                                                                  *
 ************************************************************************************
  
 +------------+-------------+-------------+-----------------+ <-- min BFGS
 |    Step    |   lambda    |   F.delta'  |    enthalpy     | <-- min BFGS
 +------------+-------------+-------------+-----------------+ <-- min BFGS
 |  previous  |    0.000000 |    0.423067 |     -858.391084 | <-- min BFGS
 | trial step |    1.000000 |    0.376008 |     -858.406933 | <-- min BFGS
 +------------+-------------+-------------+-----------------+ <-- min BFGS
  

--------------------------------------------------------------------------------
 BFGS: improving iteration         1 with line minimization (lambda=  8.990145)
--------------------------------------------------------------------------------
 
                           -------------------------------
                                     Cell Contents
                           -------------------------------
 
            xxxxxxxxxxxxxxxxxxxxxxxxxxxxxxxxxxxxxxxxxxxxxxxxxxxxxxxxxxxxxxxxx
            x  Element         Atom        Fractional coordinates of atoms  x
            x                 Number           u          v          w      x
            x---------------------------------------------------------------x
            x  Si                1        -0.002677  -0.002677  -0.002677   x
            x  Si                2        -0.002677   0.497323   0.497323   x
            x  Si                3         0.497323  -0.002677   0.497323   x
            x  Si                4         0.497323   0.497323  -0.002677   x
            x  Si                5         0.752677   0.252677   0.752677   x
            x  Si                6         0.252677   0.252677   0.252677   x
            x  Si                7         0.252677   0.752677   0.752677   x
            x  Si                8         0.752677   0.752677   0.252677   x
            xxxxxxxxxxxxxxxxxxxxxxxxxxxxxxxxxxxxxxxxxxxxxxxxxxxxxxxxxxxxxxxxx
 
 
------------------------------------------------------------------------ <-- SCF
SCF loop      Energy                           Energy gain       Timer   <-- SCF
                                               per atom          (sec)   <-- SCF
------------------------------------------------------------------------ <-- SCF
Initial  -8.58180750E+002                                        146.47  <-- SCF
      1  -8.58466053E+002                    3.56629834E-002     152.74  <-- SCF
      2  -8.58468744E+002                    3.36298820E-004     161.10  <-- SCF
      3  -8.58468772E+002                    3.54274434E-006     168.75  <-- SCF
      4  -8.58468867E+002                    1.18190275E-005     175.64  <-- SCF
      5  -8.58468870E+002                    3.58140116E-007     180.45  <-- SCF
      6  -8.58468871E+002                    1.07396426E-007     185.28  <-- SCF
------------------------------------------------------------------------ <-- SCF
 
Final energy =  -858.4688705025     eV
(energy not corrected for finite basis set)
 
 
 ************************************** Forces **************************************
 *                                                                                  *
 *                           Cartesian components (eV/A)                            *
 * -------------------------------------------------------------------------------- *
 *                         x                    y                    z              *
 *                                                                                  *
 * Si              1     -0.01680             -0.01680             -0.01680         *
 * Si              2     -0.01680             -0.01680             -0.01680         *
 * Si              3     -0.01679             -0.01680             -0.01680         *
 * Si              4     -0.01680             -0.01680             -0.01680         *
 * Si              5      0.01679              0.01680              0.01680         *
 * Si              6      0.01680              0.01680              0.01680         *
 * Si              7      0.01680              0.01680              0.01680         *
 * Si              8      0.01679              0.01680              0.01680         *
 *                                                                                  *
 ************************************************************************************
  
 +------------+-------------+-------------+-----------------+ <-- min BFGS
 |    Step    |   lambda    |   F.delta'  |    enthalpy     | <-- min BFGS
 +------------+-------------+-------------+-----------------+ <-- min BFGS
 |  previous  |    0.000000 |    0.423067 |     -858.391084 | <-- min BFGS
 | trial step |    1.000000 |    0.376008 |     -858.406933 | <-- min BFGS
 |  line step |    8.990145 |    0.015850 |     -858.468871 | <-- min BFGS
 +------------+-------------+-------------+-----------------+ <-- min BFGS
  
 BFGS: finished iteration     1 with enthalpy= -8.58468871E+002 eV
  
 +-----------+-----------------+-----------------+------------+-----+ <-- BFGS
 | Parameter |      value      |    tolerance    |    units   | OK? | <-- BFGS
 +-----------+-----------------+-----------------+------------+-----+ <-- BFGS
 |  dE/ion   |   9.723328E-003 |   5.000000E-006 |         eV | No  | <-- BFGS
 |  |F|max   |   2.909300E-002 |   1.000000E-002 |       eV/A | No  | <-- BFGS
 |  |dR|max  |   2.430011E-002 |   5.000000E-004 |          A | No  | <-- BFGS
 +-----------+-----------------+-----------------+------------+-----+ <-- BFGS
  

================================================================================
 Starting BFGS iteration          2 ...
================================================================================
  
 +------------+-------------+-------------+-----------------+ <-- min BFGS
 |    Step    |   lambda    |   F.delta'  |    enthalpy     | <-- min BFGS
 +------------+-------------+-------------+-----------------+ <-- min BFGS
 |  previous  |    0.000000 |    0.015850 |     -858.468871 | <-- min BFGS
 +------------+-------------+-------------+-----------------+ <-- min BFGS
  

--------------------------------------------------------------------------------
 BFGS: starting iteration         2 with trial guess (lambda=  1.000000)
--------------------------------------------------------------------------------
 
                           -------------------------------
                                     Cell Contents
                           -------------------------------
 
            xxxxxxxxxxxxxxxxxxxxxxxxxxxxxxxxxxxxxxxxxxxxxxxxxxxxxxxxxxxxxxxxx
            x  Element         Atom        Fractional coordinates of atoms  x
            x                 Number           u          v          w      x
            x---------------------------------------------------------------x
            x  Si                1        -0.002781  -0.002781  -0.002781   x
            x  Si                2        -0.002781   0.497219   0.497219   x
            x  Si                3         0.497219  -0.002781   0.497219   x
            x  Si                4         0.497219   0.497219  -0.002781   x
            x  Si                5         0.752781   0.252781   0.752781   x
            x  Si                6         0.252781   0.252781   0.252781   x
            x  Si                7         0.252781   0.752781   0.752781   x
            x  Si                8         0.752781   0.752781   0.252781   x
            xxxxxxxxxxxxxxxxxxxxxxxxxxxxxxxxxxxxxxxxxxxxxxxxxxxxxxxxxxxxxxxxx
 
 
------------------------------------------------------------------------ <-- SCF
SCF loop      Energy                           Energy gain       Timer   <-- SCF
                                               per atom          (sec)   <-- SCF
------------------------------------------------------------------------ <-- SCF
Initial  -8.58456076E+002                                        189.40  <-- SCF
      1  -8.58468978E+002                    1.61274322E-003     195.81  <-- SCF
      2  -8.58468982E+002                    4.66735255E-007     200.85  <-- SCF
      3  -8.58468983E+002                    1.43950559E-007     205.78  <-- SCF
      4  -8.58468984E+002                    8.07954645E-008     210.66  <-- SCF
------------------------------------------------------------------------ <-- SCF
 
Final energy =  -858.4689837004     eV
(energy not corrected for finite basis set)
 
 
 ************************************** Forces **************************************
 *                                                                                  *
 *                           Cartesian components (eV/A)                            *
 * -------------------------------------------------------------------------------- *
 *                         x                    y                    z              *
 *                                                                                  *
 * Si              1     -0.00019             -0.00019             -0.00020         *
 * Si              2     -0.00019             -0.00020             -0.00020         *
 * Si              3     -0.00019             -0.00019             -0.00020         *
 * Si              4     -0.00019             -0.00020             -0.00020         *
 * Si              5      0.00019              0.00019              0.00020         *
 * Si              6      0.00019              0.00019              0.00020         *
 * Si              7      0.00019              0.00020              0.00020         *
 * Si              8      0.00019              0.00020              0.00020         *
 *                                                                                  *
 ************************************************************************************
  
 +------------+-------------+-------------+-----------------+ <-- min BFGS
 |    Step    |   lambda    |   F.delta'  |    enthalpy     | <-- min BFGS
 +------------+-------------+-------------+-----------------+ <-- min BFGS
 |  previous  |    0.000000 |    0.015850 |     -858.468871 | <-- min BFGS
 | trial step |    1.000000 |    0.000183 |     -858.468984 | <-- min BFGS
 +------------+-------------+-------------+-----------------+ <-- min BFGS
  
 BFGS: finished iteration     2 with enthalpy= -8.58468984E+002 eV
  
 +-----------+-----------------+-----------------+------------+-----+ <-- BFGS
 | Parameter |      value      |    tolerance    |    units   | OK? | <-- BFGS
 +-----------+-----------------+-----------------+------------+-----+ <-- BFGS
 |  dE/ion   |   1.414973E-005 |   5.000000E-006 |         eV | No  | <-- BFGS
 |  |F|max   |   3.372993E-004 |   1.000000E-002 |       eV/A | Yes | <-- BFGS
 |  |dR|max  |   9.458371E-004 |   5.000000E-004 |          A | No  | <-- BFGS
 +-----------+-----------------+-----------------+------------+-----+ <-- BFGS
  

================================================================================
 Starting BFGS iteration          3 ...
================================================================================
  
 +------------+-------------+-------------+-----------------+ <-- min BFGS
 |    Step    |   lambda    |   F.delta'  |    enthalpy     | <-- min BFGS
 +------------+-------------+-------------+-----------------+ <-- min BFGS
 |  previous  |    0.000000 |    0.000183 |     -858.468984 | <-- min BFGS
 +------------+-------------+-------------+-----------------+ <-- min BFGS
  

--------------------------------------------------------------------------------
 BFGS: starting iteration         3 with trial guess (lambda=  1.000000)
--------------------------------------------------------------------------------
 
                           -------------------------------
                                     Cell Contents
                           -------------------------------
 
            xxxxxxxxxxxxxxxxxxxxxxxxxxxxxxxxxxxxxxxxxxxxxxxxxxxxxxxxxxxxxxxxx
            x  Element         Atom        Fractional coordinates of atoms  x
            x                 Number           u          v          w      x
            x---------------------------------------------------------------x
            x  Si                1        -0.002782  -0.002782  -0.002782   x
            x  Si                2        -0.002782   0.497218   0.497218   x
            x  Si                3         0.497218  -0.002782   0.497218   x
            x  Si                4         0.497218   0.497218  -0.002782   x
            x  Si                5         0.752782   0.252782   0.752782   x
            x  Si                6         0.252782   0.252782   0.252782   x
            x  Si                7         0.252782   0.752782   0.752782   x
            x  Si                8         0.752782   0.752782   0.252782   x
            xxxxxxxxxxxxxxxxxxxxxxxxxxxxxxxxxxxxxxxxxxxxxxxxxxxxxxxxxxxxxxxxx
 
 
------------------------------------------------------------------------ <-- SCF
SCF loop      Energy                           Energy gain       Timer   <-- SCF
                                               per atom          (sec)   <-- SCF
------------------------------------------------------------------------ <-- SCF
Initial  -8.58469598E+002                                        214.83  <-- SCF
      1  -8.58468984E+002                   -7.67147820E-005     219.09  <-- SCF
      2  -8.58468984E+002                    1.02015996E-008     223.99  <-- SCF
      3  -8.58468984E+002                    5.38142102E-009     228.82  <-- SCF
      4  -8.58468984E+002                    2.76206820E-009     233.67  <-- SCF
------------------------------------------------------------------------ <-- SCF
 
Final energy =  -858.4689840337     eV
(energy not corrected for finite basis set)
 
 
 ************************************** Forces **************************************
 *                                                                                  *
 *                           Cartesian components (eV/A)                            *
 * -------------------------------------------------------------------------------- *
 *                         x                    y                    z              *
 *                                                                                  *
 * Si              1     -0.00006             -0.00006             -0.00006         *
 * Si              2     -0.00006             -0.00006             -0.00006         *
 * Si              3     -0.00006             -0.00006             -0.00006         *
 * Si              4     -0.00006             -0.00006             -0.00006         *
 * Si              5      0.00006              0.00006              0.00006         *
 * Si              6      0.00006              0.00006              0.00006         *
 * Si              7      0.00006              0.00006              0.00006         *
 * Si              8      0.00006              0.00006              0.00006         *
 *                                                                                  *
 ************************************************************************************
  
 +------------+-------------+-------------+-----------------+ <-- min BFGS
 |    Step    |   lambda    |   F.delta'  |    enthalpy     | <-- min BFGS
 +------------+-------------+-------------+-----------------+ <-- min BFGS
 |  previous  |    0.000000 |    0.000183 |     -858.468984 | <-- min BFGS
 | trial step |    1.000000 |    0.000057 |     -858.468984 | <-- min BFGS
 +------------+-------------+-------------+-----------------+ <-- min BFGS
  
 BFGS: finished iteration     3 with enthalpy= -8.58468984E+002 eV
  
 +-----------+-----------------+-----------------+------------+-----+ <-- BFGS
 | Parameter |      value      |    tolerance    |    units   | OK? | <-- BFGS
 +-----------+-----------------+-----------------+------------+-----+ <-- BFGS
 |  dE/ion   |   4.166761E-008 |   5.000000E-006 |         eV | Yes | <-- BFGS
 |  |F|max   |   1.053377E-004 |   1.000000E-002 |       eV/A | Yes | <-- BFGS
 |  |dR|max  |   1.107787E-005 |   5.000000E-004 |          A | Yes | <-- BFGS
 +-----------+-----------------+-----------------+------------+-----+ <-- BFGS
  
 BFGS: Geometry optimization completed successfully.

================================================================================
 BFGS: Final Configuration:
================================================================================
 
                           -------------------------------
                                     Cell Contents
                           -------------------------------
 
            xxxxxxxxxxxxxxxxxxxxxxxxxxxxxxxxxxxxxxxxxxxxxxxxxxxxxxxxxxxxxxxxx
            x  Element         Atom        Fractional coordinates of atoms  x
            x                 Number           u          v          w      x
            x---------------------------------------------------------------x
            x  Si                1        -0.002782  -0.002782  -0.002782   x
            x  Si                2        -0.002782   0.497218   0.497218   x
            x  Si                3         0.497218  -0.002782   0.497218   x
            x  Si                4         0.497218   0.497218  -0.002782   x
            x  Si                5         0.752782   0.252782   0.752782   x
            x  Si                6         0.252782   0.252782   0.252782   x
            x  Si                7         0.252782   0.752782   0.752782   x
            x  Si                8         0.752782   0.752782   0.252782   x
            xxxxxxxxxxxxxxxxxxxxxxxxxxxxxxxxxxxxxxxxxxxxxxxxxxxxxxxxxxxxxxxxx
 
 
 BFGS: Final Enthalpy     = -8.58468984E+002 eV
 BFGS: Final <frequency>  =     573.76659 cm-1
 
 ************************************** Forces **************************************
 *                                                                                  *
 *                           Cartesian components (eV/A)                            *
 * -------------------------------------------------------------------------------- *
 *                         x                    y                    z              *
 *                                                                                  *
 * Si              1     -0.00006             -0.00006             -0.00006         *
 * Si              2     -0.00006             -0.00006             -0.00006         *
 * Si              3     -0.00006             -0.00006             -0.00006         *
 * Si              4     -0.00006             -0.00006             -0.00006         *
 * Si              5      0.00006              0.00006              0.00006         *
 * Si              6      0.00006              0.00006              0.00006         *
 * Si              7      0.00006              0.00006              0.00006         *
 * Si              8      0.00006              0.00006              0.00006         *
 *                                                                                  *
 ************************************************************************************
 
 ***************** Stress Tensor *****************
 *                                               *
 *          Cartesian components (GPa)           *
 * --------------------------------------------- *
 *             x             y             z     *
 *                                               *
 *  x     -0.183986     -2.984790     -2.984790  *
 *  y     -2.984790     -0.183987     -2.984785  *
 *  z     -2.984790     -2.984785     -0.183985  *
 *                                               *
 *  Pressure:    0.1840                          *
 *                                               *
 *************************************************

Writing analysis data to Si.castep_bin

Writing model to Si.check
 
 A BibTeX formatted list of references used in this run has been written to 
 Si.bib
 
Initialisation time =      0.66 s
Calculation time    =    244.47 s
Finalisation time   =      0.55 s
Total time          =    245.67 s
  
Overall parallel efficiency rating: Excellent (99%)                             
  
Data was distributed by:-
k-point (8-way); efficiency rating: Ideal (100%)                                
  
Parallel notes:
1) Calculation only took 245.3 s, so efficiency estimates may be inaccurate.    
