 Job started on host YOS-20180822FRE
 at Fri May  3 03:02:34 2019

 +-------------------------------------------------+
 |                                                 |
 |      CCC   AA    SSS  TTTTT  EEEEE  PPPP        |
 |     C     A  A  S       T    E      P   P       |
 |     C     AAAA   SS     T    EEE    PPPP        |
 |     C     A  A     S    T    E      P           |
 |      CCC  A  A  SSS     T    EEEEE  P           |
 |                                                 |
 +-------------------------------------------------+
 |                                                 |
 | Materials Studio CASTEP version 2017 R2         |
 | Ab Initio Total Energy Program                  |
 |                                                 |
 | Authors:                                        |
 | M. Segall, M. Probert, C. Pickard, P. Hasnip,   |
 | S. Clark, K. Refson, J. R. Yates, M. Payne      |
 |                                                 |
 | Contributors:                                   |
 | P. Lindan, P. Haynes, J. White, V. Milman,      |
 | N. Govind, M. Gibson, P. Tulip, V. Cocula,      |
 | B. Montanari, D. Quigley, M. Glover,            |
 | L. Bernasconi, A. Perlov, M. Plummer,           |
 | E. McNellis, J. Meyer, J. Gale, D. Jochym       |
 | J. Aarons, B. Walker, R. Gillen, D. Jones       |
 | T. Green, I. J. Bush, C. J. Armstrong,          |
 | E. J. Higgins, E. L. Brown, M. S. McFly,        |
 | J. Wilkins, B-C. Shih, P. J. P. Byrne           |
 |                                                 |
 | Copyright (c) 2000 - 2016                       |
 |                                                 |
 | Please cite                                     |
 |                                                 |
 |     "First principles methods using CASTEP"     |
 |                                                 |
 |         Zeitschrift fuer Kristallographie       |
 |           220(5-6) pp. 567-570 (2005)           |
 |                                                 |
 | S. J. Clark, M. D. Segall, C. J. Pickard,       |
 | P. J. Hasnip, M. J. Probert, K. Refson,         |
 | M. C. Payne                                     |
 |                                                 |
 |       in all publications arising from          |
 |              your use of CASTEP                 |
 |                                                 |
 +-------------------------------------------------+
 
 
 This version was compiled for i686-windows-msvc2013 on Dec 07 2016
 Code version: 7217
 Intel(R) Math Kernel Library Version 11.1.2 
 Fundamental constants values: CODATA 2010
 
License checkout of MS_castep successful
 
 
 Pseudo atomic calculation performed for Si 3s2 3p2
 
 Converged in 17 iterations to a total energy of -101.9015 eV
 
 Calculation parallelised over 8 processes.
 Data is distributed by k-point(8-way)

 ************************************ Title ************************************
 CASTEP calculation from Materials Studio

 ***************************** General Parameters ******************************
  
 output verbosity                               : normal  (1)
 write checkpoint data to                       : Si.check
 type of calculation                            : geometry optimization
 stress calculation                             : on
 density difference calculation                 : off
 electron localisation func (ELF) calculation   : off
 Hirshfeld analysis                             : off
 unlimited duration calculation
 timing information                             : on
 memory usage estimate                          : on
 write final potential to formatted file        : off
 write final density to formatted file          : off
 write BibTeX reference list                    : on
 write OTFG pseudopotential files               : on
 write electrostatic potential file             : on
 write bands file                               : on
 checkpoint writing                             : both castep_bin and check files
  
 output         length unit                     : A
 output           mass unit                     : amu
 output           time unit                     : ps
 output         charge unit                     : e
 output           spin unit                     : hbar/2
 output         energy unit                     : eV
 output          force unit                     : eV/A
 output       velocity unit                     : A/ps
 output       pressure unit                     : GPa
 output     inv_length unit                     : 1/A
 output      frequency unit                     : cm-1
 output force constant unit                     : eV/A**2
 output         volume unit                     : A**3
 output   IR intensity unit                     : (D/A)**2/amu
 output         dipole unit                     : D
 output         efield unit                     : eV/A/e
 output        entropy unit                     : J/mol/K
  
 wavefunctions paging                           : none
 random number generator seed                   : randomised (30235197)
 data distribution                              : optimal for this architecture
 optimization strategy                          : balance speed and memory

 *********************** Exchange-Correlation Parameters ***********************
  
 using functional                               : Perdew Burke Ernzerhof
 relativistic treatment                         : Koelling-Harmon
 DFT+D: Semi-empirical dispersion correction    : off

 ************************* Pseudopotential Parameters **************************
  
 pseudopotential representation                 : reciprocal space
 <beta|phi> representation                      : reciprocal space
 spin-orbit coupling                            : off

 **************************** Basis Set Parameters *****************************
  
 plane wave basis set cut-off                   :   320.0000   eV
 size of standard grid                          :     2.0000
 size of   fine   grid                          :     3.0000
 size of   fine   gmax                          :    27.4938   1/A
 largest prime factor in FFT                    :          5
 finite basis set correction                    : automatic
 number of sample energies                      :          3
           sample  spacing                      :     5.0000   eV

 **************************** Electronic Parameters ****************************
  
 number of  electrons                           :  32.00    
 net charge of system                           :  0.000    
 treating system as non-spin-polarized
 number of bands                                :         16

 ********************* Electronic Minimization Parameters **********************
  
 Method: Treating system as non-metallic,
         and number of  SD  steps               :          1
         and number of  CG  steps               :          4
  
 total energy / atom convergence tol.           : 0.5000E-06   eV
 eigen-energy convergence tolerance             : 0.2500E-06   eV
 max force / atom convergence tol.              : ignored
 convergence tolerance window                   :          3   cycles
 max. number of SCF cycles                      :        100
 periodic dipole correction                     : NONE

 ************************** Density Mixing Parameters **************************
  
 density-mixing scheme                          : Pulay
 max. length of mixing history                  :         20
 charge density mixing amplitude                : 0.5000    
 cut-off energy for mixing                      :  320.0       eV
 charge density mixing g-vector                 :  1.500       1/A

 ********************** Geometry Optimization Parameters ***********************
  
 optimization method                            : BFGS
 variable cell method                           : fixed basis quality
 max. number of steps                           :        100
 estimated bulk modulus                         :  500.0       GPa
 estimated <frequency>                          :  1668.       cm-1
 geom line minimiser                            : on
 with line minimiser tolerance                  :     0.4000
 total energy convergence tolerance             : 0.5000E-05   eV/atom
        max ionic |force| tolerance             : 0.1000E-01   eV/A
 max ionic |displacement| tolerance             : 0.5000E-03   A
   max |stress component| tolerance             : 0.2000E-01   GPa
 convergence tolerance window                   :          2   steps
 backup results every                           :          5   steps
 write geom trajectory file                     : on

 *******************************************************************************
  
 
                           -------------------------------
                                      Unit Cell
                           -------------------------------
        Real Lattice(A)                      Reciprocal Lattice(1/A)
   5.4435478  -0.3397607  -0.3397608        1.1639167   0.0774823   0.0774823
  -0.3397608   5.4435477  -0.3397608        0.0774823   1.1639167   0.0774823
  -0.3397608  -0.3397608   5.4435478        0.0774823   0.0774823   1.1639167
 
                       Lattice parameters(A)       Cell Angles
                    a =    5.464713          alpha =   96.892103
                    b =    5.464713          beta  =   96.892103
                    c =    5.464713          gamma =   96.892102
 
                       Current cell volume =  159.340753       A**3
                                   density =    1.410085   AMU/A**3
                                           =    2.341501     g/cm^3
 
                           -------------------------------
                                     Cell Contents
                           -------------------------------
                         Total number of ions in cell =    8
                      Total number of species in cell =    1
                        Max number of any one species =    8
 
            xxxxxxxxxxxxxxxxxxxxxxxxxxxxxxxxxxxxxxxxxxxxxxxxxxxxxxxxxxxx
            x  Element    Atom        Fractional coordinates of atoms  x
            x            Number           u          v          w      x
            x----------------------------------------------------------x
            x  Si           1         0.000000  -0.000000  -0.000000   x 
            x  Si           2         0.000000   0.500000   0.500000   x 
            x  Si           3         0.500000   0.000000   0.500000   x 
            x  Si           4         0.500000   0.500000  -0.000000   x 
            x  Si           5         0.750000   0.250000   0.750000   x 
            x  Si           6         0.250000   0.250000   0.250000   x 
            x  Si           7         0.250000   0.750000   0.750000   x 
            x  Si           8         0.750000   0.750000   0.250000   x 
            xxxxxxxxxxxxxxxxxxxxxxxxxxxxxxxxxxxxxxxxxxxxxxxxxxxxxxxxxxxx
 
 
                         No user defined ionic velocities
 
                           -------------------------------
                                   Details of Species
                           -------------------------------
 
                               Mass of species in AMU
                                    Si   28.0849991
 
                          Electric Quadrupole Moment (Barn)
                                    Si    1.0000000 No Isotope Defined
 
                          Files used for pseudopotentials:
                                    Si D:\PROGRA~1\BIOVIA\MATERI~1.2\share\Resources\Quantum\Castep\Potentials\Si_00PBE.usp
 
                           -------------------------------
                              k-Points For BZ Sampling
                           -------------------------------
                       MP grid size for SCF calculation is  8  8  8
                            with an offset of   0.000  0.000  0.000
                       Number of kpoints used =           256
 
                           -------------------------------
                               Symmetry and Constraints
                           -------------------------------
 
                      Cell is a supercell containing 4 primitive cells
                      Maximum deviation from symmetry =  0.00000         ANG
 
                      Number of symmetry operations   =           1
         There are no ionic constraints specified or generated for this cell
                      Point group of crystal =     1: C1, 1, 1
                      Space group of crystal =   166: R-3m, -R 3 2"
 
             Set iprint > 1 for details on symmetry rotations/translations
 
                         Centre of mass is NOT constrained
 
                         Number of cell constraints= 6
                         Cell constraints are:  0 0 0 0 0 0
 
                         External pressure/stress (GPa)
                          0.00000   0.00000   0.00000
                                    0.00000   0.00000
                                              0.00000
  
+---------------- MEMORY AND SCRATCH DISK ESTIMATES PER PROCESS --------------+
|                                                     Memory          Disk    |
| Baseline code, static data and system overhead        0.0 MB         0.0 MB |
| BLAS internal memory storage                          0.0 MB         0.0 MB |
| Model and support data                               51.0 MB        31.0 MB |
| Electronic energy minimisation requirements          46.5 MB         0.0 MB |
| Force calculation requirements                       14.2 MB         0.0 MB |
| Stress calculation requirements                      17.5 MB         0.0 MB |
|                                               ----------------------------- |
| Approx. total storage required per process           97.5 MB        31.0 MB |
|                                                                             |
| Requirements will fluctuate during execution and may exceed these estimates |
+-----------------------------------------------------------------------------+
Calculating finite basis set correction with  3 cut-off energies.
Calculating total energy with cut-off of  310.000 eV.
------------------------------------------------------------------------ <-- SCF
SCF loop      Energy                           Energy gain       Timer   <-- SCF
                                               per atom          (sec)   <-- SCF
------------------------------------------------------------------------ <-- SCF
Initial   3.97648544E+002                                          1.79  <-- SCF
      1  -7.42536207E+002                    1.42523094E+002       9.81  <-- SCF
      2  -8.53333073E+002                    1.38496082E+001      15.83  <-- SCF
      3  -8.56555493E+002                    4.02802616E-001      21.17  <-- SCF
      4  -8.55818829E+002                   -9.20830105E-002      28.86  <-- SCF
      5  -8.55546599E+002                   -3.40288045E-002      35.72  <-- SCF
      6  -8.55557275E+002                    1.33455825E-003      43.51  <-- SCF
      7  -8.55559081E+002                    2.25638531E-004      51.28  <-- SCF
      8  -8.55559333E+002                    3.16007389E-005      57.89  <-- SCF
      9  -8.55559336E+002                    3.53322391E-007      62.59  <-- SCF
     10  -8.55559337E+002                    1.39488136E-007      67.25  <-- SCF
------------------------------------------------------------------------ <-- SCF
 
Final energy =  -855.5593372597     eV
(energy not corrected for finite basis set)
 
Calculating total energy with cut-off of  315.000 eV.
------------------------------------------------------------------------ <-- SCF
SCF loop      Energy                           Energy gain       Timer   <-- SCF
                                               per atom          (sec)   <-- SCF
------------------------------------------------------------------------ <-- SCF
Initial  -8.55559337E+002                                         69.50  <-- SCF
      1  -8.55560878E+002                    1.92606417E-004      75.55  <-- SCF
      2  -8.55560879E+002                    1.55278873E-007      80.39  <-- SCF
      3  -8.55560881E+002                    1.68776836E-007      85.21  <-- SCF
      4  -8.55560881E+002                    4.25695316E-008      90.07  <-- SCF
------------------------------------------------------------------------ <-- SCF
 
Final energy =  -855.5608810507     eV
(energy not corrected for finite basis set)
 
Calculating total energy with cut-off of  320.000 eV.
------------------------------------------------------------------------ <-- SCF
SCF loop      Energy                           Energy gain       Timer   <-- SCF
                                               per atom          (sec)   <-- SCF
------------------------------------------------------------------------ <-- SCF
Initial  -8.55560881E+002                                         92.32  <-- SCF
      1  -8.55562346E+002                    1.83131293E-004      98.59  <-- SCF
      2  -8.55562347E+002                    1.23702208E-007     103.40  <-- SCF
      3  -8.55562348E+002                    1.62556064E-007     108.31  <-- SCF
      4  -8.55562349E+002                    3.58480482E-008     113.19  <-- SCF
------------------------------------------------------------------------ <-- SCF
 
Final energy =  -855.5623486813     eV
(energy not corrected for finite basis set)
 
 For future reference: finite basis dEtot/dlog(Ecut) =      -0.094851eV
 Total energy corrected for finite basis set =    -855.562332 eV
 
+---------------- MEMORY AND SCRATCH DISK ESTIMATES PER PROCESS --------------+
|                                                     Memory          Disk    |
| Model and support data                               55.3 MB        31.0 MB |
| Electronic energy minimisation requirements          46.5 MB         0.0 MB |
| Geometry minimisation requirements                   65.4 MB         0.0 MB |
|                                               ----------------------------- |
| Approx. total storage required per process          167.2 MB        31.0 MB |
|                                                                             |
| Requirements will fluctuate during execution and may exceed these estimates |
+-----------------------------------------------------------------------------+
 
 
 ************************************** Forces **************************************
 *                                                                                  *
 *                           Cartesian components (eV/A)                            *
 * -------------------------------------------------------------------------------- *
 *                         x                    y                    z              *
 *                                                                                  *
 * Si              1     -2.27511             -2.27510             -2.27512         *
 * Si              2     -2.27510             -2.27510             -2.27512         *
 * Si              3     -2.27512             -2.27512             -2.27509         *
 * Si              4     -2.27511             -2.27512             -2.27510         *
 * Si              5      2.27511              2.27512              2.27510         *
 * Si              6      2.27511              2.27510              2.27512         *
 * Si              7      2.27510              2.27510              2.27511         *
 * Si              8      2.27511              2.27511              2.27511         *
 *                                                                                  *
 ************************************************************************************
 BFGS: finished iteration     0 with enthalpy= -8.55562349E+002 eV
  
 +-----------+-----------------+-----------------+------------+-----+ <-- BFGS
 | Parameter |      value      |    tolerance    |    units   | OK? | <-- BFGS
 +-----------+-----------------+-----------------+------------+-----+ <-- BFGS
 |  dE/ion   |   0.000000E+000 |   5.000000E-006 |         eV | No  | <-- BFGS
 |  |F|max   |   3.940608E+000 |   1.000000E-002 |       eV/A | No  | <-- BFGS
 |  |dR|max  |   0.000000E+000 |   5.000000E-004 |          A | No  | <-- BFGS
 +-----------+-----------------+-----------------+------------+-----+ <-- BFGS
  

================================================================================
 Starting BFGS iteration          1 ...
================================================================================
  
 +------------+-------------+-------------+-----------------+ <-- min BFGS
 |    Step    |   lambda    |   F.delta'  |    enthalpy     | <-- min BFGS
 +------------+-------------+-------------+-----------------+ <-- min BFGS
 |  previous  |    0.000000 |    1.951333 |     -855.562349 | <-- min BFGS
 +------------+-------------+-------------+-----------------+ <-- min BFGS
  

--------------------------------------------------------------------------------
 BFGS: starting iteration         1 with trial guess (lambda=  1.000000)
--------------------------------------------------------------------------------
 
                           -------------------------------
                                     Cell Contents
                           -------------------------------
 
            xxxxxxxxxxxxxxxxxxxxxxxxxxxxxxxxxxxxxxxxxxxxxxxxxxxxxxxxxxxxxxxxx
            x  Element         Atom        Fractional coordinates of atoms  x
            x                 Number           u          v          w      x
            x---------------------------------------------------------------x
            x  Si                1        -0.001662  -0.001662  -0.001662   x
            x  Si                2        -0.001662   0.498338   0.498338   x
            x  Si                3         0.498338  -0.001662   0.498338   x
            x  Si                4         0.498338   0.498338  -0.001662   x
            x  Si                5         0.751662   0.251662   0.751662   x
            x  Si                6         0.251662   0.251662   0.251662   x
            x  Si                7         0.251662   0.751662   0.751662   x
            x  Si                8         0.751662   0.751662   0.251662   x
            xxxxxxxxxxxxxxxxxxxxxxxxxxxxxxxxxxxxxxxxxxxxxxxxxxxxxxxxxxxxxxxxx
 
 
------------------------------------------------------------------------ <-- SCF
SCF loop      Energy                           Energy gain       Timer   <-- SCF
                                               per atom          (sec)   <-- SCF
------------------------------------------------------------------------ <-- SCF
Initial  -8.55088956E+002                                        117.36  <-- SCF
      1  -8.55951833E+002                    1.07859640E-001     123.60  <-- SCF
      2  -8.55953061E+002                    1.53550555E-004     132.20  <-- SCF
      3  -8.55952712E+002                   -4.36977539E-005     139.04  <-- SCF
      4  -8.55952662E+002                   -6.25076289E-006     145.95  <-- SCF
      5  -8.55952666E+002                    4.62581066E-007     150.85  <-- SCF
      6  -8.55952666E+002                    6.30452003E-008     155.75  <-- SCF
      7  -8.55952666E+002                    2.28718852E-008     160.62  <-- SCF
------------------------------------------------------------------------ <-- SCF
 
Final energy =  -855.9526662514     eV
(energy not corrected for finite basis set)
 
 
 ************************************** Forces **************************************
 *                                                                                  *
 *                           Cartesian components (eV/A)                            *
 * -------------------------------------------------------------------------------- *
 *                         x                    y                    z              *
 *                                                                                  *
 * Si              1     -1.83600             -1.83599             -1.83600         *
 * Si              2     -1.83599             -1.83599             -1.83600         *
 * Si              3     -1.83600             -1.83600             -1.83599         *
 * Si              4     -1.83600             -1.83600             -1.83599         *
 * Si              5      1.83600              1.83600              1.83599         *
 * Si              6      1.83599              1.83599              1.83600         *
 * Si              7      1.83599              1.83599              1.83600         *
 * Si              8      1.83600              1.83600              1.83599         *
 *                                                                                  *
 ************************************************************************************
  
 +------------+-------------+-------------+-----------------+ <-- min BFGS
 |    Step    |   lambda    |   F.delta'  |    enthalpy     | <-- min BFGS
 +------------+-------------+-------------+-----------------+ <-- min BFGS
 |  previous  |    0.000000 |    1.951333 |     -855.562349 | <-- min BFGS
 | trial step |    1.000000 |    1.574710 |     -855.952666 | <-- min BFGS
 +------------+-------------+-------------+-----------------+ <-- min BFGS
  

--------------------------------------------------------------------------------
 BFGS: improving iteration         1 with line minimization (lambda=  5.181140)
--------------------------------------------------------------------------------
 
                           -------------------------------
                                     Cell Contents
                           -------------------------------
 
            xxxxxxxxxxxxxxxxxxxxxxxxxxxxxxxxxxxxxxxxxxxxxxxxxxxxxxxxxxxxxxxxx
            x  Element         Atom        Fractional coordinates of atoms  x
            x                 Number           u          v          w      x
            x---------------------------------------------------------------x
            x  Si                1        -0.008613  -0.008613  -0.008613   x
            x  Si                2        -0.008613   0.491387   0.491387   x
            x  Si                3         0.491387  -0.008613   0.491387   x
            x  Si                4         0.491387   0.491387  -0.008613   x
            x  Si                5         0.758613   0.258613   0.758613   x
            x  Si                6         0.258613   0.258613   0.258613   x
            x  Si                7         0.258613   0.758613   0.758613   x
            x  Si                8         0.758613   0.758613   0.258613   x
            xxxxxxxxxxxxxxxxxxxxxxxxxxxxxxxxxxxxxxxxxxxxxxxxxxxxxxxxxxxxxxxxx
 
 
------------------------------------------------------------------------ <-- SCF
SCF loop      Energy                           Energy gain       Timer   <-- SCF
                                               per atom          (sec)   <-- SCF
------------------------------------------------------------------------ <-- SCF
Initial  -8.54212388E+002                                        164.71  <-- SCF
      1  -8.56783669E+002                    3.21410077E-001     170.99  <-- SCF
      2  -8.56818978E+002                    4.41369987E-003     179.51  <-- SCF
      3  -8.56814325E+002                   -5.81711690E-004     186.56  <-- SCF
      4  -8.56813657E+002                   -8.34024114E-005     193.50  <-- SCF
      5  -8.56816561E+002                    3.62924663E-004     200.87  <-- SCF
      6  -8.56816727E+002                    2.07828737E-005     205.81  <-- SCF
      7  -8.56816728E+002                    1.19117093E-007     210.69  <-- SCF
      8  -8.56816729E+002                    7.34659001E-008     215.59  <-- SCF
------------------------------------------------------------------------ <-- SCF
 
Final energy =  -856.8167285283     eV
(energy not corrected for finite basis set)
 
 
 ************************************** Forces **************************************
 *                                                                                  *
 *                           Cartesian components (eV/A)                            *
 * -------------------------------------------------------------------------------- *
 *                         x                    y                    z              *
 *                                                                                  *
 * Si              1     -0.44332             -0.44693             -0.43700         *
 * Si              2     -0.44228             -0.44067             -0.44662         *
 * Si              3     -0.44337             -0.44457             -0.44510         *
 * Si              4     -0.44617             -0.44194             -0.43730         *
 * Si              5      0.44383              0.44480              0.44550         *
 * Si              6      0.44290              0.44683              0.43669         *
 * Si              7      0.44212              0.44052              0.44655         *
 * Si              8      0.44630              0.44195              0.43726         *
 *                                                                                  *
 ************************************************************************************
  
 +------------+-------------+-------------+-----------------+ <-- min BFGS
 |    Step    |   lambda    |   F.delta'  |    enthalpy     | <-- min BFGS
 +------------+-------------+-------------+-----------------+ <-- min BFGS
 |  previous  |    0.000000 |    1.951333 |     -855.562349 | <-- min BFGS
 | trial step |    1.000000 |    1.574710 |     -855.952666 | <-- min BFGS
 |  line step |    5.181140 |    0.379903 |     -856.816729 | <-- min BFGS
 +------------+-------------+-------------+-----------------+ <-- min BFGS
  
 BFGS: finished iteration     1 with enthalpy= -8.56816729E+002 eV
  
 +-----------+-----------------+-----------------+------------+-----+ <-- BFGS
 | Parameter |      value      |    tolerance    |    units   | OK? | <-- BFGS
 +-----------+-----------------+-----------------+------------+-----+ <-- BFGS
 |  dE/ion   |   1.567975E-001 |   5.000000E-006 |         eV | No  | <-- BFGS
 |  |F|max   |   7.702597E-001 |   1.000000E-002 |       eV/A | No  | <-- BFGS
 |  |dR|max  |   7.106828E-002 |   5.000000E-004 |          A | No  | <-- BFGS
 +-----------+-----------------+-----------------+------------+-----+ <-- BFGS
  

================================================================================
 Starting BFGS iteration          2 ...
================================================================================
  
 +------------+-------------+-------------+-----------------+ <-- min BFGS
 |    Step    |   lambda    |   F.delta'  |    enthalpy     | <-- min BFGS
 +------------+-------------+-------------+-----------------+ <-- min BFGS
 |  previous  |    0.000000 |    0.379906 |     -856.816729 | <-- min BFGS
 +------------+-------------+-------------+-----------------+ <-- min BFGS
  

--------------------------------------------------------------------------------
 BFGS: starting iteration         2 with trial guess (lambda=  1.000000)
--------------------------------------------------------------------------------
 
                           -------------------------------
                                     Cell Contents
                           -------------------------------
 
            xxxxxxxxxxxxxxxxxxxxxxxxxxxxxxxxxxxxxxxxxxxxxxxxxxxxxxxxxxxxxxxxx
            x  Element         Atom        Fractional coordinates of atoms  x
            x                 Number           u          v          w      x
            x---------------------------------------------------------------x
            x  Si                1        -0.010695  -0.010698  -0.010690   x
            x  Si                2        -0.010694   0.489307   0.489302   x
            x  Si                3         0.489305  -0.010696   0.489303   x
            x  Si                4         0.489303   0.489306  -0.010690   x
            x  Si                5         0.760696   0.260697   0.760697   x
            x  Si                6         0.260695   0.260698   0.260690   x
            x  Si                7         0.260694   0.760693   0.760698   x
            x  Si                8         0.760697   0.760694   0.260690   x
            xxxxxxxxxxxxxxxxxxxxxxxxxxxxxxxxxxxxxxxxxxxxxxxxxxxxxxxxxxxxxxxxx
 
 
------------------------------------------------------------------------ <-- SCF
SCF loop      Energy                           Energy gain       Timer   <-- SCF
                                               per atom          (sec)   <-- SCF
------------------------------------------------------------------------ <-- SCF
Initial  -8.56208547E+002                                        219.73  <-- SCF
      1  -8.56882010E+002                    8.41828781E-002     226.08  <-- SCF
      2  -8.56883885E+002                    2.34418954E-004     234.75  <-- SCF
      3  -8.56884728E+002                    1.05342002E-004     241.93  <-- SCF
      4  -8.56884897E+002                    2.11743566E-005     248.92  <-- SCF
      5  -8.56884895E+002                   -2.77015923E-007     253.95  <-- SCF
      6  -8.56884896E+002                    1.34411420E-007     258.81  <-- SCF
------------------------------------------------------------------------ <-- SCF
 
Final energy =  -856.8848961854     eV
(energy not corrected for finite basis set)
 
 
 ************************************** Forces **************************************
 *                                                                                  *
 *                           Cartesian components (eV/A)                            *
 * -------------------------------------------------------------------------------- *
 *                         x                    y                    z              *
 *                                                                                  *
 * Si              1     -0.13091             -0.13404             -0.12909         *
 * Si              2     -0.12997             -0.12866             -0.13666         *
 * Si              3     -0.13067             -0.13156             -0.13517         *
 * Si              4     -0.13362             -0.13012             -0.12960         *
 * Si              5      0.13065              0.13158              0.13515         *
 * Si              6      0.13094              0.13401              0.12911         *
 * Si              7      0.12997              0.12867              0.13667         *
 * Si              8      0.13361              0.13012              0.12960         *
 *                                                                                  *
 ************************************************************************************
  
 +------------+-------------+-------------+-----------------+ <-- min BFGS
 |    Step    |   lambda    |   F.delta'  |    enthalpy     | <-- min BFGS
 +------------+-------------+-------------+-----------------+ <-- min BFGS
 |  previous  |    0.000000 |    0.379906 |     -856.816729 | <-- min BFGS
 | trial step |    1.000000 |    0.112936 |     -856.884896 | <-- min BFGS
 +------------+-------------+-------------+-----------------+ <-- min BFGS
  

--------------------------------------------------------------------------------
 BFGS: improving iteration         2 with line minimization (lambda=  1.423031)
--------------------------------------------------------------------------------
 
                           -------------------------------
                                     Cell Contents
                           -------------------------------
 
            xxxxxxxxxxxxxxxxxxxxxxxxxxxxxxxxxxxxxxxxxxxxxxxxxxxxxxxxxxxxxxxxx
            x  Element         Atom        Fractional coordinates of atoms  x
            x                 Number           u          v          w      x
            x---------------------------------------------------------------x
            x  Si                1        -0.011576  -0.011580  -0.011569   x
            x  Si                2        -0.011575   0.488427   0.488420   x
            x  Si                3         0.488423  -0.011578   0.488422   x
            x  Si                4         0.488421   0.488426  -0.011569   x
            x  Si                5         0.761577   0.261578   0.761579   x
            x  Si                6         0.261576   0.261580   0.261569   x
            x  Si                7         0.261575   0.761573   0.761580   x
            x  Si                8         0.761579   0.761574   0.261569   x
            xxxxxxxxxxxxxxxxxxxxxxxxxxxxxxxxxxxxxxxxxxxxxxxxxxxxxxxxxxxxxxxxx
 
 
------------------------------------------------------------------------ <-- SCF
SCF loop      Energy                           Energy gain       Timer   <-- SCF
                                               per atom          (sec)   <-- SCF
------------------------------------------------------------------------ <-- SCF
Initial  -8.56618448E+002                                        262.89  <-- SCF
      1  -8.56891787E+002                    3.41673387E-002     269.18  <-- SCF
      2  -8.56892127E+002                    4.24985322E-005     277.73  <-- SCF
      3  -8.56898826E+002                    8.37364503E-004     284.39  <-- SCF
      4  -8.56900476E+002                    2.06226801E-004     289.79  <-- SCF
      5  -8.56900408E+002                   -8.41276811E-006     296.59  <-- SCF
      6  -8.56903530E+002                    3.90182554E-004     301.80  <-- SCF
      7  -8.56904305E+002                    9.69281384E-005     306.73  <-- SCF
      8  -8.56905109E+002                    1.00506777E-004     311.67  <-- SCF
      9  -8.56905297E+002                    2.34764592E-005     316.53  <-- SCF
     10  -8.56905312E+002                    1.80364991E-006     321.47  <-- SCF
     11  -8.56905538E+002                    2.83182794E-005     328.48  <-- SCF
     12  -8.56905957E+002                    5.23606169E-005     334.33  <-- SCF
     13  -8.56905989E+002                    4.03656034E-006     341.39  <-- SCF
     14  -8.56907371E+002                    1.72691341E-004     347.09  <-- SCF
     15  -8.56907981E+002                    7.63113725E-005     352.05  <-- SCF
     16  -8.56908126E+002                    1.80822759E-005     356.98  <-- SCF
     17  -8.56908150E+002                    2.99955616E-006     363.15  <-- SCF
     18  -8.56908129E+002                   -2.58096416E-006     369.02  <-- SCF
     19  -8.56908136E+002                    8.30542912E-007     374.06  <-- SCF
     20  -8.56908139E+002                    3.86635604E-007     378.99  <-- SCF
     21  -8.56908135E+002                   -4.68488395E-007     383.90  <-- SCF
------------------------------------------------------------------------ <-- SCF
 
Final energy =  -856.9081353926     eV
(energy not corrected for finite basis set)
 
 
 ************************************** Forces **************************************
 *                                                                                  *
 *                           Cartesian components (eV/A)                            *
 * -------------------------------------------------------------------------------- *
 *                         x                    y                    z              *
 *                                                                                  *
 * Si              1     -0.07936             -0.08641             -0.06570         *
 * Si              2     -0.09080             -0.09613             -0.11075         *
 * Si              3     -0.06282             -0.08503             -0.09275         *
 * Si              4     -0.06967             -0.08833             -0.07177         *
 * Si              5      0.06358              0.08578              0.09446         *
 * Si              6      0.07881              0.08439              0.06545         *
 * Si              7      0.09124              0.09882              0.10990         *
 * Si              8      0.06900              0.08692              0.07116         *
 *                                                                                  *
 ************************************************************************************
  
 +------------+-------------+-------------+-----------------+ <-- min BFGS
 |    Step    |   lambda    |   F.delta'  |    enthalpy     | <-- min BFGS
 +------------+-------------+-------------+-----------------+ <-- min BFGS
 |  previous  |    0.000000 |    0.379906 |     -856.816729 | <-- min BFGS
 | trial step |    1.000000 |    0.112936 |     -856.884896 | <-- min BFGS
 |  line step |    1.423031 |    0.071446 |     -856.908135 | <-- min BFGS
 +------------+-------------+-------------+-----------------+ <-- min BFGS
  

--------------------------------------------------------------------------------
 BFGS: improving iteration         2 with quad minimization (lambda=  2.151476)
--------------------------------------------------------------------------------
 
                           -------------------------------
                                     Cell Contents
                           -------------------------------
 
            xxxxxxxxxxxxxxxxxxxxxxxxxxxxxxxxxxxxxxxxxxxxxxxxxxxxxxxxxxxxxxxxx
            x  Element         Atom        Fractional coordinates of atoms  x
            x                 Number           u          v          w      x
            x---------------------------------------------------------------x
            x  Si                1        -0.013093  -0.013099  -0.013083   x
            x  Si                2        -0.013091   0.486911   0.486901   x
            x  Si                3         0.486906  -0.013096   0.486904   x
            x  Si                4         0.486903   0.486909  -0.013083   x
            x  Si                5         0.763095   0.263096   0.763097   x
            x  Si                6         0.263092   0.263098   0.263082   x
            x  Si                7         0.263091   0.763089   0.763098   x
            x  Si                8         0.763098   0.763091   0.263083   x
            xxxxxxxxxxxxxxxxxxxxxxxxxxxxxxxxxxxxxxxxxxxxxxxxxxxxxxxxxxxxxxxxx
 
 
------------------------------------------------------------------------ <-- SCF
SCF loop      Energy                           Energy gain       Timer   <-- SCF
                                               per atom          (sec)   <-- SCF
------------------------------------------------------------------------ <-- SCF
Initial  -8.56519548E+002                                        388.05  <-- SCF
      1  -8.56907374E+002                    4.84782295E-002     394.37  <-- SCF
      2  -8.56908397E+002                    1.27906646E-004     402.93  <-- SCF
      3  -8.56908623E+002                    2.82116678E-005     410.08  <-- SCF
      4  -8.56908860E+002                    2.96523232E-005     417.16  <-- SCF
      5  -8.56909242E+002                    4.77062602E-005     422.00  <-- SCF
      6  -8.56909534E+002                    3.65486526E-005     426.80  <-- SCF
      7  -8.56909536E+002                    2.58239667E-007     431.73  <-- SCF
      8  -8.56909536E+002                    7.52992186E-009     436.65  <-- SCF
------------------------------------------------------------------------ <-- SCF
 
Final energy =  -856.9095362074     eV
(energy not corrected for finite basis set)
 
 
 ************************************** Forces **************************************
 *                                                                                  *
 *                           Cartesian components (eV/A)                            *
 * -------------------------------------------------------------------------------- *
 *                         x                    y                    z              *
 *                                                                                  *
 * Si              1      0.07813              0.08244              0.08310         *
 * Si              2      0.07878              0.08454              0.07936         *
 * Si              3      0.07872              0.08242              0.07876         *
 * Si              4      0.07738              0.08244              0.08156         *
 * Si              5     -0.07855             -0.08245             -0.07882         *
 * Si              6     -0.07832             -0.08244             -0.08304         *
 * Si              7     -0.07898             -0.08446             -0.07932         *
 * Si              8     -0.07716             -0.08249             -0.08160         *
 *                                                                                  *
 ************************************************************************************
  
 +------------+-------------+-------------+-----------------+ <-- min BFGS
 |    Step    |   lambda    |   F.delta'  |    enthalpy     | <-- min BFGS
 +------------+-------------+-------------+-----------------+ <-- min BFGS
 |  previous  |    0.000000 |    0.379906 |     -856.816729 | <-- min BFGS
 | trial step |    1.000000 |    0.112936 |     -856.884896 | <-- min BFGS
 |  line step |    1.423031 |    0.071446 |     -856.908135 | <-- min BFGS
 |  quad step |    2.151476 |   -0.069159 |     -856.909536 | <-- min BFGS
 +------------+-------------+-------------+-----------------+ <-- min BFGS
  
 BFGS: finished iteration     2 with enthalpy= -8.56909536E+002 eV
  
 +-----------+-----------------+-----------------+------------+-----+ <-- BFGS
 | Parameter |      value      |    tolerance    |    units   | OK? | <-- BFGS
 +-----------+-----------------+-----------------+------------+-----+ <-- BFGS
 |  dE/ion   |   1.160096E-002 |   5.000000E-006 |         eV | No  | <-- BFGS
 |  |F|max   |   1.408040E-001 |   1.000000E-002 |       eV/A | No  | <-- BFGS
 |  |dR|max  |   3.699351E-002 |   5.000000E-004 |          A | No  | <-- BFGS
 +-----------+-----------------+-----------------+------------+-----+ <-- BFGS
  

================================================================================
 Starting BFGS iteration          3 ...
================================================================================
  
 +------------+-------------+-------------+-----------------+ <-- min BFGS
 |    Step    |   lambda    |   F.delta'  |    enthalpy     | <-- min BFGS
 +------------+-------------+-------------+-----------------+ <-- min BFGS
 |  previous  |    0.000000 |    0.069163 |     -856.909536 | <-- min BFGS
 +------------+-------------+-------------+-----------------+ <-- min BFGS
  

--------------------------------------------------------------------------------
 BFGS: starting iteration         3 with trial guess (lambda=  1.000000)
--------------------------------------------------------------------------------
 
                           -------------------------------
                                     Cell Contents
                           -------------------------------
 
            xxxxxxxxxxxxxxxxxxxxxxxxxxxxxxxxxxxxxxxxxxxxxxxxxxxxxxxxxxxxxxxxx
            x  Element         Atom        Fractional coordinates of atoms  x
            x                 Number           u          v          w      x
            x---------------------------------------------------------------x
            x  Si                1        -0.012404  -0.012407  -0.012393   x
            x  Si                2        -0.012403   0.487603   0.487591   x
            x  Si                3         0.487595  -0.012405   0.487593   x
            x  Si                4         0.487591   0.487600  -0.012394   x
            x  Si                5         0.762406   0.262405   0.762408   x
            x  Si                6         0.262403   0.262407   0.262392   x
            x  Si                7         0.262402   0.762397   0.762409   x
            x  Si                8         0.762409   0.762400   0.262394   x
            xxxxxxxxxxxxxxxxxxxxxxxxxxxxxxxxxxxxxxxxxxxxxxxxxxxxxxxxxxxxxxxxx
 
 
------------------------------------------------------------------------ <-- SCF
SCF loop      Energy                           Energy gain       Timer   <-- SCF
                                               per atom          (sec)   <-- SCF
------------------------------------------------------------------------ <-- SCF
Initial  -8.57126073E+002                                        440.81  <-- SCF
      1  -8.56912432E+002                   -2.67051851E-002     447.01  <-- SCF
      2  -8.56912640E+002                    2.60166927E-005     455.65  <-- SCF
      3  -8.56912625E+002                   -1.90191573E-006     461.65  <-- SCF
      4  -8.56912626E+002                    1.58558572E-007     466.83  <-- SCF
      5  -8.56912627E+002                    1.12029697E-007     471.78  <-- SCF
------------------------------------------------------------------------ <-- SCF
 
Final energy =  -856.9126269392     eV
(energy not corrected for finite basis set)
 
 
 ************************************** Forces **************************************
 *                                                                                  *
 *                           Cartesian components (eV/A)                            *
 * -------------------------------------------------------------------------------- *
 *                         x                    y                    z              *
 *                                                                                  *
 * Si              1     -0.00419             -0.00047              0.00005         *
 * Si              2     -0.00353              0.00165             -0.00297         *
 * Si              3     -0.00208              0.00039             -0.00284         *
 * Si              4     -0.00353              0.00032             -0.00058         *
 * Si              5      0.00204             -0.00036              0.00282         *
 * Si              6      0.00426              0.00043             -0.00004         *
 * Si              7      0.00355             -0.00164              0.00297         *
 * Si              8      0.00349             -0.00032              0.00059         *
 *                                                                                  *
 ************************************************************************************
  
 +------------+-------------+-------------+-----------------+ <-- min BFGS
 |    Step    |   lambda    |   F.delta'  |    enthalpy     | <-- min BFGS
 +------------+-------------+-------------+-----------------+ <-- min BFGS
 |  previous  |    0.000000 |    0.069163 |     -856.909536 | <-- min BFGS
 | trial step |    1.000000 |   -0.001268 |     -856.912627 | <-- min BFGS
 +------------+-------------+-------------+-----------------+ <-- min BFGS
  
 BFGS: finished iteration     3 with enthalpy= -8.56912627E+002 eV
  
 +-----------+-----------------+-----------------+------------+-----+ <-- BFGS
 | Parameter |      value      |    tolerance    |    units   | OK? | <-- BFGS
 +-----------+-----------------+-----------------+------------+-----+ <-- BFGS
 |  dE/ion   |   3.863415E-004 |   5.000000E-006 |         eV | No  | <-- BFGS
 |  |F|max   |   4.905082E-003 |   1.000000E-002 |       eV/A | Yes | <-- BFGS
 |  |dR|max  |   5.695010E-003 |   5.000000E-004 |          A | No  | <-- BFGS
 +-----------+-----------------+-----------------+------------+-----+ <-- BFGS
  

================================================================================
 Starting BFGS iteration          4 ...
================================================================================
  
 +------------+-------------+-------------+-----------------+ <-- min BFGS
 |    Step    |   lambda    |   F.delta'  |    enthalpy     | <-- min BFGS
 +------------+-------------+-------------+-----------------+ <-- min BFGS
 |  previous  |    0.000000 |    0.001435 |     -856.912627 | <-- min BFGS
 +------------+-------------+-------------+-----------------+ <-- min BFGS
  

--------------------------------------------------------------------------------
 BFGS: starting iteration         4 with trial guess (lambda=  1.000000)
--------------------------------------------------------------------------------
 
                           -------------------------------
                                     Cell Contents
                           -------------------------------
 
            xxxxxxxxxxxxxxxxxxxxxxxxxxxxxxxxxxxxxxxxxxxxxxxxxxxxxxxxxxxxxxxxx
            x  Element         Atom        Fractional coordinates of atoms  x
            x                 Number           u          v          w      x
            x---------------------------------------------------------------x
            x  Si                1        -0.012418  -0.012419  -0.012404   x
            x  Si                2        -0.012416   0.487592   0.487578   x
            x  Si                3         0.487582  -0.012416   0.487580   x
            x  Si                4         0.487578   0.487589  -0.012405   x
            x  Si                5         0.762418   0.262416   0.762421   x
            x  Si                6         0.262417   0.262419   0.262404   x
            x  Si                7         0.262416   0.762408   0.762422   x
            x  Si                8         0.762423   0.762411   0.262405   x
            xxxxxxxxxxxxxxxxxxxxxxxxxxxxxxxxxxxxxxxxxxxxxxxxxxxxxxxxxxxxxxxxx
 
 
------------------------------------------------------------------------ <-- SCF
SCF loop      Energy                           Energy gain       Timer   <-- SCF
                                               per atom          (sec)   <-- SCF
------------------------------------------------------------------------ <-- SCF
Initial  -8.56906056E+002                                        475.94  <-- SCF
      1  -8.56912629E+002                    8.21588759E-004     480.19  <-- SCF
      2  -8.56912629E+002                    4.82178944E-008     485.15  <-- SCF
      3  -8.56912630E+002                    1.03557467E-008     490.06  <-- SCF
      4  -8.56912630E+002                    1.11680522E-009     494.91  <-- SCF
------------------------------------------------------------------------ <-- SCF
 
Final energy =  -856.9126295651     eV
(energy not corrected for finite basis set)
 
 
 ************************************** Forces **************************************
 *                                                                                  *
 *                           Cartesian components (eV/A)                            *
 * -------------------------------------------------------------------------------- *
 *                         x                    y                    z              *
 *                                                                                  *
 * Si              1     -0.00317              0.00026              0.00083         *
 * Si              2     -0.00253              0.00228             -0.00206         *
 * Si              3     -0.00118              0.00106             -0.00194         *
 * Si              4     -0.00258              0.00100              0.00020         *
 * Si              5      0.00114             -0.00105              0.00192         *
 * Si              6      0.00322             -0.00030             -0.00082         *
 * Si              7      0.00255             -0.00227              0.00206         *
 * Si              8      0.00255             -0.00099             -0.00019         *
 *                                                                                  *
 ************************************************************************************
  
 +------------+-------------+-------------+-----------------+ <-- min BFGS
 |    Step    |   lambda    |   F.delta'  |    enthalpy     | <-- min BFGS
 +------------+-------------+-------------+-----------------+ <-- min BFGS
 |  previous  |    0.000000 |    0.001435 |     -856.912627 | <-- min BFGS
 | trial step |    1.000000 |    0.000714 |     -856.912630 | <-- min BFGS
 +------------+-------------+-------------+-----------------+ <-- min BFGS
  
 BFGS: finished iteration     4 with enthalpy= -8.56912630E+002 eV
  
 +-----------+-----------------+-----------------+------------+-----+ <-- BFGS
 | Parameter |      value      |    tolerance    |    units   | OK? | <-- BFGS
 +-----------+-----------------+-----------------+------------+-----+ <-- BFGS
 |  dE/ion   |   3.282365E-007 |   5.000000E-006 |         eV | Yes | <-- BFGS
 |  |F|max   |   3.984218E-003 |   1.000000E-002 |       eV/A | Yes | <-- BFGS
 |  |dR|max  |   1.042893E-004 |   5.000000E-004 |          A | Yes | <-- BFGS
 +-----------+-----------------+-----------------+------------+-----+ <-- BFGS
  
 BFGS: Geometry optimization completed successfully.

================================================================================
 BFGS: Final Configuration:
================================================================================
 
                           -------------------------------
                                     Cell Contents
                           -------------------------------
 
            xxxxxxxxxxxxxxxxxxxxxxxxxxxxxxxxxxxxxxxxxxxxxxxxxxxxxxxxxxxxxxxxx
            x  Element         Atom        Fractional coordinates of atoms  x
            x                 Number           u          v          w      x
            x---------------------------------------------------------------x
            x  Si                1        -0.012418  -0.012419  -0.012404   x
            x  Si                2        -0.012416   0.487592   0.487578   x
            x  Si                3         0.487582  -0.012416   0.487580   x
            x  Si                4         0.487578   0.487589  -0.012405   x
            x  Si                5         0.762418   0.262416   0.762421   x
            x  Si                6         0.262417   0.262419   0.262404   x
            x  Si                7         0.262416   0.762408   0.762422   x
            x  Si                8         0.762423   0.762411   0.262405   x
            xxxxxxxxxxxxxxxxxxxxxxxxxxxxxxxxxxxxxxxxxxxxxxxxxxxxxxxxxxxxxxxxx
 
 
 BFGS: Final Enthalpy     = -8.56912630E+002 eV
 BFGS: Final <frequency>  =     514.80992 cm-1
 
 ************************************** Forces **************************************
 *                                                                                  *
 *                           Cartesian components (eV/A)                            *
 * -------------------------------------------------------------------------------- *
 *                         x                    y                    z              *
 *                                                                                  *
 * Si              1     -0.00317              0.00026              0.00083         *
 * Si              2     -0.00253              0.00228             -0.00206         *
 * Si              3     -0.00118              0.00106             -0.00194         *
 * Si              4     -0.00258              0.00100              0.00020         *
 * Si              5      0.00114             -0.00105              0.00192         *
 * Si              6      0.00322             -0.00030             -0.00082         *
 * Si              7      0.00255             -0.00227              0.00206         *
 * Si              8      0.00255             -0.00099             -0.00019         *
 *                                                                                  *
 ************************************************************************************
 
 ***************** Stress Tensor *****************
 *                                               *
 *          Cartesian components (GPa)           *
 * --------------------------------------------- *
 *             x             y             z     *
 *                                               *
 *  x     -0.942455     -8.021730     -7.988974  *
 *  y     -8.021730     -1.016995     -8.003796  *
 *  z     -7.988974     -8.003796     -0.967791  *
 *                                               *
 *  Pressure:    0.9757                          *
 *                                               *
 *************************************************

Writing analysis data to Si.castep_bin

Writing model to Si.check
 
 A BibTeX formatted list of references used in this run has been written to 
 Si.bib
 
Initialisation time =      0.66 s
Calculation time    =    505.79 s
Finalisation time   =      0.55 s
Total time          =    506.99 s
  
Overall parallel efficiency rating: Excellent (99%)                             
  
Data was distributed by:-
k-point (8-way); efficiency rating: Ideal (100%)                                
  
Parallel notes:
1) Calculation only took 506.6 s, so efficiency estimates may be inaccurate.    
