 Job started on host YOS-20180822FRE
 at Fri May  3 02:06:51 2019

 +-------------------------------------------------+
 |                                                 |
 |      CCC   AA    SSS  TTTTT  EEEEE  PPPP        |
 |     C     A  A  S       T    E      P   P       |
 |     C     AAAA   SS     T    EEE    PPPP        |
 |     C     A  A     S    T    E      P           |
 |      CCC  A  A  SSS     T    EEEEE  P           |
 |                                                 |
 +-------------------------------------------------+
 |                                                 |
 | Materials Studio CASTEP version 2017 R2         |
 | Ab Initio Total Energy Program                  |
 |                                                 |
 | Authors:                                        |
 | M. Segall, M. Probert, C. Pickard, P. Hasnip,   |
 | S. Clark, K. Refson, J. R. Yates, M. Payne      |
 |                                                 |
 | Contributors:                                   |
 | P. Lindan, P. Haynes, J. White, V. Milman,      |
 | N. Govind, M. Gibson, P. Tulip, V. Cocula,      |
 | B. Montanari, D. Quigley, M. Glover,            |
 | L. Bernasconi, A. Perlov, M. Plummer,           |
 | E. McNellis, J. Meyer, J. Gale, D. Jochym       |
 | J. Aarons, B. Walker, R. Gillen, D. Jones       |
 | T. Green, I. J. Bush, C. J. Armstrong,          |
 | E. J. Higgins, E. L. Brown, M. S. McFly,        |
 | J. Wilkins, B-C. Shih, P. J. P. Byrne           |
 |                                                 |
 | Copyright (c) 2000 - 2016                       |
 |                                                 |
 | Please cite                                     |
 |                                                 |
 |     "First principles methods using CASTEP"     |
 |                                                 |
 |         Zeitschrift fuer Kristallographie       |
 |           220(5-6) pp. 567-570 (2005)           |
 |                                                 |
 | S. J. Clark, M. D. Segall, C. J. Pickard,       |
 | P. J. Hasnip, M. J. Probert, K. Refson,         |
 | M. C. Payne                                     |
 |                                                 |
 |       in all publications arising from          |
 |              your use of CASTEP                 |
 |                                                 |
 +-------------------------------------------------+
 
 
 This version was compiled for i686-windows-msvc2013 on Dec 07 2016
 Code version: 7217
 Intel(R) Math Kernel Library Version 11.1.2 
 Fundamental constants values: CODATA 2010
 
License checkout of MS_castep successful
 
 
 Pseudo atomic calculation performed for Si 3s2 3p2
 
 Converged in 17 iterations to a total energy of -101.9015 eV
 
 Calculation parallelised over 8 processes.
 Data is distributed by k-point(8-way)

 ************************************ Title ************************************
 CASTEP calculation from Materials Studio

 ***************************** General Parameters ******************************
  
 output verbosity                               : normal  (1)
 write checkpoint data to                       : Si.check
 type of calculation                            : geometry optimization
 stress calculation                             : on
 density difference calculation                 : off
 electron localisation func (ELF) calculation   : off
 Hirshfeld analysis                             : off
 unlimited duration calculation
 timing information                             : on
 memory usage estimate                          : on
 write final potential to formatted file        : off
 write final density to formatted file          : off
 write BibTeX reference list                    : on
 write OTFG pseudopotential files               : on
 write electrostatic potential file             : on
 write bands file                               : on
 checkpoint writing                             : both castep_bin and check files
  
 output         length unit                     : A
 output           mass unit                     : amu
 output           time unit                     : ps
 output         charge unit                     : e
 output           spin unit                     : hbar/2
 output         energy unit                     : eV
 output          force unit                     : eV/A
 output       velocity unit                     : A/ps
 output       pressure unit                     : GPa
 output     inv_length unit                     : 1/A
 output      frequency unit                     : cm-1
 output force constant unit                     : eV/A**2
 output         volume unit                     : A**3
 output   IR intensity unit                     : (D/A)**2/amu
 output         dipole unit                     : D
 output         efield unit                     : eV/A/e
 output        entropy unit                     : J/mol/K
  
 wavefunctions paging                           : none
 random number generator seed                   : randomised (20652202)
 data distribution                              : optimal for this architecture
 optimization strategy                          : balance speed and memory

 *********************** Exchange-Correlation Parameters ***********************
  
 using functional                               : Perdew Burke Ernzerhof
 relativistic treatment                         : Koelling-Harmon
 DFT+D: Semi-empirical dispersion correction    : off

 ************************* Pseudopotential Parameters **************************
  
 pseudopotential representation                 : reciprocal space
 <beta|phi> representation                      : reciprocal space
 spin-orbit coupling                            : off

 **************************** Basis Set Parameters *****************************
  
 plane wave basis set cut-off                   :   320.0000   eV
 size of standard grid                          :     2.0000
 size of   fine   grid                          :     3.0000
 size of   fine   gmax                          :    27.4938   1/A
 largest prime factor in FFT                    :          5
 finite basis set correction                    : automatic
 number of sample energies                      :          3
           sample  spacing                      :     5.0000   eV

 **************************** Electronic Parameters ****************************
  
 number of  electrons                           :  32.00    
 net charge of system                           :  0.000    
 treating system as non-spin-polarized
 number of bands                                :         16

 ********************* Electronic Minimization Parameters **********************
  
 Method: Treating system as non-metallic,
         and number of  SD  steps               :          1
         and number of  CG  steps               :          4
  
 total energy / atom convergence tol.           : 0.5000E-06   eV
 eigen-energy convergence tolerance             : 0.2500E-06   eV
 max force / atom convergence tol.              : ignored
 convergence tolerance window                   :          3   cycles
 max. number of SCF cycles                      :        100
 periodic dipole correction                     : NONE

 ************************** Density Mixing Parameters **************************
  
 density-mixing scheme                          : Pulay
 max. length of mixing history                  :         20
 charge density mixing amplitude                : 0.5000    
 cut-off energy for mixing                      :  320.0       eV
 charge density mixing g-vector                 :  1.500       1/A

 ********************** Geometry Optimization Parameters ***********************
  
 optimization method                            : BFGS
 variable cell method                           : fixed basis quality
 max. number of steps                           :        100
 estimated bulk modulus                         :  500.0       GPa
 estimated <frequency>                          :  1668.       cm-1
 geom line minimiser                            : on
 with line minimiser tolerance                  :     0.4000
 total energy convergence tolerance             : 0.5000E-05   eV/atom
        max ionic |force| tolerance             : 0.1000E-01   eV/A
 max ionic |displacement| tolerance             : 0.5000E-03   A
   max |stress component| tolerance             : 0.2000E-01   GPa
 convergence tolerance window                   :          2   steps
 backup results every                           :          5   steps
 write geom trajectory file                     : on

 *******************************************************************************
  
 
                           -------------------------------
                                      Unit Cell
                           -------------------------------
        Real Lattice(A)                      Reciprocal Lattice(1/A)
   5.5718842   0.0000000   0.1082434        1.1280932   0.0000000  -0.0223493
  -0.0000000   5.4647128  -0.0000000       -0.0000000   1.1497741   0.0000000
   0.1082435   0.0000000   5.4636408       -0.0223493   0.0000000   1.1504425
 
                       Lattice parameters(A)       Cell Angles
                    a =    5.572936          alpha =   90.000000
                    b =    5.464713          beta  =   87.752098
                    c =    5.464713          gamma =   90.000000
 
                       Current cell volume =  166.296989       A**3
                                   density =    1.351101   AMU/A**3
                                           =    2.243556     g/cm^3
 
                           -------------------------------
                                     Cell Contents
                           -------------------------------
                         Total number of ions in cell =    8
                      Total number of species in cell =    1
                        Max number of any one species =    8
 
            xxxxxxxxxxxxxxxxxxxxxxxxxxxxxxxxxxxxxxxxxxxxxxxxxxxxxxxxxxxx
            x  Element    Atom        Fractional coordinates of atoms  x
            x            Number           u          v          w      x
            x----------------------------------------------------------x
            x  Si           1         0.000000  -0.000000  -0.000000   x 
            x  Si           2         0.000000   0.500000   0.500000   x 
            x  Si           3         0.500000   0.000000   0.500000   x 
            x  Si           4         0.500000   0.500000  -0.000000   x 
            x  Si           5         0.750000   0.250000   0.750000   x 
            x  Si           6         0.250000   0.250000   0.250000   x 
            x  Si           7         0.250000   0.750000   0.750000   x 
            x  Si           8         0.750000   0.750000   0.250000   x 
            xxxxxxxxxxxxxxxxxxxxxxxxxxxxxxxxxxxxxxxxxxxxxxxxxxxxxxxxxxxx
 
 
                         No user defined ionic velocities
 
                           -------------------------------
                                   Details of Species
                           -------------------------------
 
                               Mass of species in AMU
                                    Si   28.0849991
 
                          Electric Quadrupole Moment (Barn)
                                    Si    1.0000000 No Isotope Defined
 
                          Files used for pseudopotentials:
                                    Si D:\PROGRA~1\BIOVIA\MATERI~1.2\share\Resources\Quantum\Castep\Potentials\Si_00PBE.usp
 
                           -------------------------------
                              k-Points For BZ Sampling
                           -------------------------------
                       MP grid size for SCF calculation is  8  8  8
                            with an offset of   0.000  0.000  0.000
                       Number of kpoints used =           256
 
                           -------------------------------
                               Symmetry and Constraints
                           -------------------------------
 
                      Cell is a supercell containing 4 primitive cells
                      Maximum deviation from symmetry =  0.00000         ANG
 
                      Number of symmetry operations   =           1
         There are no ionic constraints specified or generated for this cell
                      Point group of crystal =     1: C1, 1, 1
                      Space group of crystal =    15: C2/c, -C 2yc
 
             Set iprint > 1 for details on symmetry rotations/translations
 
                         Centre of mass is NOT constrained
 
                         Number of cell constraints= 6
                         Cell constraints are:  0 0 0 0 0 0
 
                         External pressure/stress (GPa)
                          0.00000   0.00000   0.00000
                                    0.00000   0.00000
                                              0.00000
  
+---------------- MEMORY AND SCRATCH DISK ESTIMATES PER PROCESS --------------+
|                                                     Memory          Disk    |
| Baseline code, static data and system overhead        0.0 MB         0.0 MB |
| BLAS internal memory storage                          0.0 MB         0.0 MB |
| Model and support data                               53.6 MB        32.3 MB |
| Electronic energy minimisation requirements          48.7 MB         0.0 MB |
| Force calculation requirements                       14.9 MB         0.0 MB |
| Stress calculation requirements                      18.4 MB         0.0 MB |
|                                               ----------------------------- |
| Approx. total storage required per process          102.3 MB        32.3 MB |
|                                                                             |
| Requirements will fluctuate during execution and may exceed these estimates |
+-----------------------------------------------------------------------------+
Calculating finite basis set correction with  3 cut-off energies.
Calculating total energy with cut-off of  310.000 eV.
------------------------------------------------------------------------ <-- SCF
SCF loop      Energy                           Energy gain       Timer   <-- SCF
                                               per atom          (sec)   <-- SCF
------------------------------------------------------------------------ <-- SCF
Initial   4.03574477E+002                                          1.87  <-- SCF
      1  -7.40267427E+002                    1.42980238E+002       9.89  <-- SCF
      2  -8.55538186E+002                    1.44088449E+001      16.04  <-- SCF
      3  -8.58913790E+002                    4.21950493E-001      21.40  <-- SCF
      4  -8.58693410E+002                   -2.75475471E-002      29.70  <-- SCF
      5  -8.58533806E+002                   -1.99504604E-002      36.41  <-- SCF
      6  -8.58547534E+002                    1.71591084E-003      44.37  <-- SCF
      7  -8.58548335E+002                    1.00170595E-004      51.70  <-- SCF
      8  -8.58548380E+002                    5.67819764E-006      57.92  <-- SCF
      9  -8.58548382E+002                    1.57478563E-007      62.67  <-- SCF
     10  -8.58548382E+002                    3.47729580E-008      67.41  <-- SCF
------------------------------------------------------------------------ <-- SCF
 
Final energy =  -858.5483819409     eV
(energy not corrected for finite basis set)
 
Calculating total energy with cut-off of  315.000 eV.
------------------------------------------------------------------------ <-- SCF
SCF loop      Energy                           Energy gain       Timer   <-- SCF
                                               per atom          (sec)   <-- SCF
------------------------------------------------------------------------ <-- SCF
Initial  -8.58548382E+002                                         69.67  <-- SCF
      1  -8.58549895E+002                    1.89129797E-004      75.94  <-- SCF
      2  -8.58549896E+002                    1.57490224E-007      80.73  <-- SCF
      3  -8.58549898E+002                    1.91589774E-007      85.55  <-- SCF
      4  -8.58549898E+002                    3.76109638E-008      90.43  <-- SCF
------------------------------------------------------------------------ <-- SCF
 
Final energy =  -858.5498980668     eV
(energy not corrected for finite basis set)
 
Calculating total energy with cut-off of  320.000 eV.
------------------------------------------------------------------------ <-- SCF
SCF loop      Energy                           Energy gain       Timer   <-- SCF
                                               per atom          (sec)   <-- SCF
------------------------------------------------------------------------ <-- SCF
Initial  -8.58549898E+002                                         92.71  <-- SCF
      1  -8.58551150E+002                    1.56481597E-004      99.08  <-- SCF
      2  -8.58551151E+002                    1.15685036E-007     103.93  <-- SCF
      3  -8.58551152E+002                    1.62075847E-007     108.84  <-- SCF
      4  -8.58551152E+002                    2.78786089E-008     113.74  <-- SCF
------------------------------------------------------------------------ <-- SCF
 
Final energy =  -858.5511523649     eV
(energy not corrected for finite basis set)
 
 For future reference: finite basis dEtot/dlog(Ecut) =      -0.087444eV
 Total energy corrected for finite basis set =    -858.551150 eV
 
+---------------- MEMORY AND SCRATCH DISK ESTIMATES PER PROCESS --------------+
|                                                     Memory          Disk    |
| Model and support data                               57.4 MB        32.3 MB |
| Electronic energy minimisation requirements          48.7 MB         0.0 MB |
| Geometry minimisation requirements                   68.3 MB         0.0 MB |
|                                               ----------------------------- |
| Approx. total storage required per process          174.3 MB        32.3 MB |
|                                                                             |
| Requirements will fluctuate during execution and may exceed these estimates |
+-----------------------------------------------------------------------------+
 
 
 ************************************** Forces **************************************
 *                                                                                  *
 *                           Cartesian components (eV/A)                            *
 * -------------------------------------------------------------------------------- *
 *                         x                    y                    z              *
 *                                                                                  *
 * Si              1     -0.00000              0.31779             -0.00000         *
 * Si              2     -0.00000              0.31779             -0.00000         *
 * Si              3     -0.00000              0.31779              0.00000         *
 * Si              4     -0.00000              0.31779             -0.00000         *
 * Si              5      0.00000             -0.31779             -0.00000         *
 * Si              6      0.00000             -0.31779              0.00000         *
 * Si              7      0.00000             -0.31779              0.00000         *
 * Si              8      0.00000             -0.31779              0.00000         *
 *                                                                                  *
 ************************************************************************************
 BFGS: finished iteration     0 with enthalpy= -8.58551152E+002 eV
  
 +-----------+-----------------+-----------------+------------+-----+ <-- BFGS
 | Parameter |      value      |    tolerance    |    units   | OK? | <-- BFGS
 +-----------+-----------------+-----------------+------------+-----+ <-- BFGS
 |  dE/ion   |   0.000000E+000 |   5.000000E-006 |         eV | No  | <-- BFGS
 |  |F|max   |   3.177933E-001 |   1.000000E-002 |       eV/A | No  | <-- BFGS
 |  |dR|max  |   0.000000E+000 |   5.000000E-004 |          A | No  | <-- BFGS
 +-----------+-----------------+-----------------+------------+-----+ <-- BFGS
  

================================================================================
 Starting BFGS iteration          1 ...
================================================================================
  
 +------------+-------------+-------------+-----------------+ <-- min BFGS
 |    Step    |   lambda    |   F.delta'  |    enthalpy     | <-- min BFGS
 +------------+-------------+-------------+-----------------+ <-- min BFGS
 |  previous  |    0.000000 |    0.180511 |     -858.551152 | <-- min BFGS
 +------------+-------------+-------------+-----------------+ <-- min BFGS
  

--------------------------------------------------------------------------------
 BFGS: starting iteration         1 with trial guess (lambda=  1.000000)
--------------------------------------------------------------------------------
 
                           -------------------------------
                                     Cell Contents
                           -------------------------------
 
            xxxxxxxxxxxxxxxxxxxxxxxxxxxxxxxxxxxxxxxxxxxxxxxxxxxxxxxxxxxxxxxxx
            x  Element         Atom        Fractional coordinates of atoms  x
            x                 Number           u          v          w      x
            x---------------------------------------------------------------x
            x  Si                1         0.000000   0.000202  -0.000000   x
            x  Si                2        -0.000000   0.500202   0.500000   x
            x  Si                3         0.500000   0.000202   0.500000   x
            x  Si                4         0.500000   0.500202  -0.000000   x
            x  Si                5         0.750000   0.249798   0.750000   x
            x  Si                6         0.250000   0.249798   0.250000   x
            x  Si                7         0.250000   0.749798   0.750000   x
            x  Si                8         0.750000   0.749798   0.250000   x
            xxxxxxxxxxxxxxxxxxxxxxxxxxxxxxxxxxxxxxxxxxxxxxxxxxxxxxxxxxxxxxxxx
 
 
------------------------------------------------------------------------ <-- SCF
SCF loop      Energy                           Energy gain       Timer   <-- SCF
                                               per atom          (sec)   <-- SCF
------------------------------------------------------------------------ <-- SCF
Initial  -8.58543068E+002                                        118.00  <-- SCF
      1  -8.58553825E+002                    1.34465433E-003     124.33  <-- SCF
      2  -8.58553830E+002                    6.38082212E-007     129.18  <-- SCF
      3  -8.58553832E+002                    2.17686011E-007     134.05  <-- SCF
      4  -8.58553833E+002                    9.93532851E-008     138.90  <-- SCF
------------------------------------------------------------------------ <-- SCF
 
Final energy =  -858.5538327970     eV
(energy not corrected for finite basis set)
 
 
 ************************************** Forces **************************************
 *                                                                                  *
 *                           Cartesian components (eV/A)                            *
 * -------------------------------------------------------------------------------- *
 *                         x                    y                    z              *
 *                                                                                  *
 * Si              1      0.00000              0.28737              0.00000         *
 * Si              2     -0.00000              0.28737              0.00000         *
 * Si              3      0.00000              0.28737              0.00000         *
 * Si              4      0.00000              0.28737              0.00000         *
 * Si              5     -0.00000             -0.28737             -0.00000         *
 * Si              6     -0.00000             -0.28737             -0.00000         *
 * Si              7     -0.00000             -0.28737             -0.00000         *
 * Si              8     -0.00000             -0.28737             -0.00000         *
 *                                                                                  *
 ************************************************************************************
  
 +------------+-------------+-------------+-----------------+ <-- min BFGS
 |    Step    |   lambda    |   F.delta'  |    enthalpy     | <-- min BFGS
 +------------+-------------+-------------+-----------------+ <-- min BFGS
 |  previous  |    0.000000 |    0.180511 |     -858.551152 | <-- min BFGS
 | trial step |    1.000000 |    0.163229 |     -858.553833 | <-- min BFGS
 +------------+-------------+-------------+-----------------+ <-- min BFGS
  

--------------------------------------------------------------------------------
 BFGS: improving iteration         1 with line minimization (lambda= 10.444736)
--------------------------------------------------------------------------------
 
                           -------------------------------
                                     Cell Contents
                           -------------------------------
 
            xxxxxxxxxxxxxxxxxxxxxxxxxxxxxxxxxxxxxxxxxxxxxxxxxxxxxxxxxxxxxxxxx
            x  Element         Atom        Fractional coordinates of atoms  x
            x                 Number           u          v          w      x
            x---------------------------------------------------------------x
            x  Si                1        -0.000000   0.002114  -0.000000   x
            x  Si                2        -0.000000   0.502114   0.500000   x
            x  Si                3         0.500000   0.002114   0.500000   x
            x  Si                4         0.500000   0.502114  -0.000000   x
            x  Si                5         0.750000   0.247886   0.750000   x
            x  Si                6         0.250000   0.247886   0.250000   x
            x  Si                7         0.250000   0.747886   0.750000   x
            x  Si                8         0.750000   0.747886   0.250000   x
            xxxxxxxxxxxxxxxxxxxxxxxxxxxxxxxxxxxxxxxxxxxxxxxxxxxxxxxxxxxxxxxxx
 
 
------------------------------------------------------------------------ <-- SCF
SCF loop      Energy                           Energy gain       Timer   <-- SCF
                                               per atom          (sec)   <-- SCF
------------------------------------------------------------------------ <-- SCF
Initial  -8.58487873E+002                                        143.12  <-- SCF
      1  -8.58565695E+002                    9.72779288E-003     149.48  <-- SCF
      2  -8.58566329E+002                    7.93004705E-005     158.34  <-- SCF
      3  -8.58566385E+002                    6.94483692E-006     164.92  <-- SCF
      4  -8.58566416E+002                    3.87822876E-006     170.76  <-- SCF
      5  -8.58566417E+002                    1.17292173E-007     175.58  <-- SCF
      6  -8.58566417E+002                    3.83675970E-008     180.45  <-- SCF
------------------------------------------------------------------------ <-- SCF
 
Final energy =  -858.5664172999     eV
(energy not corrected for finite basis set)
 
 
 ************************************** Forces **************************************
 *                                                                                  *
 *                           Cartesian components (eV/A)                            *
 * -------------------------------------------------------------------------------- *
 *                         x                    y                    z              *
 *                                                                                  *
 * Si              1      0.00000              0.01526              0.00000         *
 * Si              2      0.00000              0.01526              0.00000         *
 * Si              3      0.00000              0.01526              0.00000         *
 * Si              4      0.00000              0.01526              0.00000         *
 * Si              5     -0.00000             -0.01526             -0.00000         *
 * Si              6     -0.00000             -0.01526             -0.00000         *
 * Si              7     -0.00000             -0.01526             -0.00000         *
 * Si              8     -0.00000             -0.01526             -0.00000         *
 *                                                                                  *
 ************************************************************************************
  
 +------------+-------------+-------------+-----------------+ <-- min BFGS
 |    Step    |   lambda    |   F.delta'  |    enthalpy     | <-- min BFGS
 +------------+-------------+-------------+-----------------+ <-- min BFGS
 |  previous  |    0.000000 |    0.180511 |     -858.551152 | <-- min BFGS
 | trial step |    1.000000 |    0.163229 |     -858.553833 | <-- min BFGS
 |  line step |   10.444736 |    0.008666 |     -858.566417 | <-- min BFGS
 +------------+-------------+-------------+-----------------+ <-- min BFGS
  
 BFGS: finished iteration     1 with enthalpy= -8.58566417E+002 eV
  
 +-----------+-----------------+-----------------+------------+-----+ <-- BFGS
 | Parameter |      value      |    tolerance    |    units   | OK? | <-- BFGS
 +-----------+-----------------+-----------------+------------+-----+ <-- BFGS
 |  dE/ion   |   1.908117E-003 |   5.000000E-006 |         eV | No  | <-- BFGS
 |  |F|max   |   1.525748E-002 |   1.000000E-002 |       eV/A | No  | <-- BFGS
 |  |dR|max  |   1.155392E-002 |   5.000000E-004 |          A | No  | <-- BFGS
 +-----------+-----------------+-----------------+------------+-----+ <-- BFGS
  

================================================================================
 Starting BFGS iteration          2 ...
================================================================================
  
 +------------+-------------+-------------+-----------------+ <-- min BFGS
 |    Step    |   lambda    |   F.delta'  |    enthalpy     | <-- min BFGS
 +------------+-------------+-------------+-----------------+ <-- min BFGS
 |  previous  |    0.000000 |    0.008666 |     -858.566417 | <-- min BFGS
 +------------+-------------+-------------+-----------------+ <-- min BFGS
  

--------------------------------------------------------------------------------
 BFGS: starting iteration         2 with trial guess (lambda=  1.000000)
--------------------------------------------------------------------------------
 
                           -------------------------------
                                     Cell Contents
                           -------------------------------
 
            xxxxxxxxxxxxxxxxxxxxxxxxxxxxxxxxxxxxxxxxxxxxxxxxxxxxxxxxxxxxxxxxx
            x  Element         Atom        Fractional coordinates of atoms  x
            x                 Number           u          v          w      x
            x---------------------------------------------------------------x
            x  Si                1         0.000000   0.002221  -0.000000   x
            x  Si                2        -0.000000   0.502221   0.500000   x
            x  Si                3         0.500000   0.002221   0.500000   x
            x  Si                4         0.500000   0.502221  -0.000000   x
            x  Si                5         0.750000   0.247779   0.750000   x
            x  Si                6         0.250000   0.247779   0.250000   x
            x  Si                7         0.250000   0.747779   0.750000   x
            x  Si                8         0.750000   0.747779   0.250000   x
            xxxxxxxxxxxxxxxxxxxxxxxxxxxxxxxxxxxxxxxxxxxxxxxxxxxxxxxxxxxxxxxxx
 
 
------------------------------------------------------------------------ <-- SCF
SCF loop      Energy                           Energy gain       Timer   <-- SCF
                                               per atom          (sec)   <-- SCF
------------------------------------------------------------------------ <-- SCF
Initial  -8.58561944E+002                                        184.71  <-- SCF
      1  -8.58566454E+002                    5.63663466E-004     191.02  <-- SCF
      2  -8.58566455E+002                    1.91920279E-007     196.00  <-- SCF
      3  -8.58566456E+002                    7.04323947E-008     200.84  <-- SCF
      4  -8.58566456E+002                    3.34933049E-008     205.72  <-- SCF
------------------------------------------------------------------------ <-- SCF
 
Final energy =  -858.5664560852     eV
(energy not corrected for finite basis set)
 
 
 ************************************** Forces **************************************
 *                                                                                  *
 *                           Cartesian components (eV/A)                            *
 * -------------------------------------------------------------------------------- *
 *                         x                    y                    z              *
 *                                                                                  *
 * Si              1      0.00000              0.00052              0.00000         *
 * Si              2      0.00000              0.00052              0.00000         *
 * Si              3      0.00000              0.00052              0.00000         *
 * Si              4      0.00000              0.00052              0.00000         *
 * Si              5     -0.00000             -0.00052             -0.00000         *
 * Si              6     -0.00000             -0.00052             -0.00000         *
 * Si              7     -0.00000             -0.00052             -0.00000         *
 * Si              8     -0.00000             -0.00052             -0.00000         *
 *                                                                                  *
 ************************************************************************************
  
 +------------+-------------+-------------+-----------------+ <-- min BFGS
 |    Step    |   lambda    |   F.delta'  |    enthalpy     | <-- min BFGS
 +------------+-------------+-------------+-----------------+ <-- min BFGS
 |  previous  |    0.000000 |    0.008666 |     -858.566417 | <-- min BFGS
 | trial step |    1.000000 |    0.000296 |     -858.566456 | <-- min BFGS
 +------------+-------------+-------------+-----------------+ <-- min BFGS
  
 BFGS: finished iteration     2 with enthalpy= -8.58566456E+002 eV
  
 +-----------+-----------------+-----------------+------------+-----+ <-- BFGS
 | Parameter |      value      |    tolerance    |    units   | OK? | <-- BFGS
 +-----------+-----------------+-----------------+------------+-----+ <-- BFGS
 |  dE/ion   |   4.848164E-006 |   5.000000E-006 |         eV | Yes | <-- BFGS
 |  |F|max   |   5.230346E-004 |   1.000000E-002 |       eV/A | Yes | <-- BFGS
 |  |dR|max  |   5.826421E-004 |   5.000000E-004 |          A | No  | <-- BFGS
 +-----------+-----------------+-----------------+------------+-----+ <-- BFGS
  

================================================================================
 Starting BFGS iteration          3 ...
================================================================================
  
 +------------+-------------+-------------+-----------------+ <-- min BFGS
 |    Step    |   lambda    |   F.delta'  |    enthalpy     | <-- min BFGS
 +------------+-------------+-------------+-----------------+ <-- min BFGS
 |  previous  |    0.000000 |    0.000296 |     -858.566456 | <-- min BFGS
 +------------+-------------+-------------+-----------------+ <-- min BFGS
  

--------------------------------------------------------------------------------
 BFGS: starting iteration         3 with trial guess (lambda=  1.000000)
--------------------------------------------------------------------------------
 
                           -------------------------------
                                     Cell Contents
                           -------------------------------
 
            xxxxxxxxxxxxxxxxxxxxxxxxxxxxxxxxxxxxxxxxxxxxxxxxxxxxxxxxxxxxxxxxx
            x  Element         Atom        Fractional coordinates of atoms  x
            x                 Number           u          v          w      x
            x---------------------------------------------------------------x
            x  Si                1         0.000000   0.002225  -0.000000   x
            x  Si                2        -0.000000   0.502225   0.500000   x
            x  Si                3         0.500000   0.002225   0.500000   x
            x  Si                4         0.500000   0.502225  -0.000000   x
            x  Si                5         0.750000   0.247775   0.750000   x
            x  Si                6         0.250000   0.247775   0.250000   x
            x  Si                7         0.250000   0.747775   0.750000   x
            x  Si                8         0.750000   0.747775   0.250000   x
            xxxxxxxxxxxxxxxxxxxxxxxxxxxxxxxxxxxxxxxxxxxxxxxxxxxxxxxxxxxxxxxxx
 
 
------------------------------------------------------------------------ <-- SCF
SCF loop      Energy                           Energy gain       Timer   <-- SCF
                                               per atom          (sec)   <-- SCF
------------------------------------------------------------------------ <-- SCF
Initial  -8.58566490E+002                                        209.95  <-- SCF
      1  -8.58566456E+002                   -4.22502360E-006     214.22  <-- SCF
      2  -8.58566456E+002                    6.76592935E-009     219.10  <-- SCF
      3  -8.58566456E+002                    3.20348287E-009     223.99  <-- SCF
      4  -8.58566456E+002                    1.57914987E-009     228.88  <-- SCF
------------------------------------------------------------------------ <-- SCF
 
Final energy =  -858.5664563326     eV
(energy not corrected for finite basis set)
 
 
 ************************************** Forces **************************************
 *                                                                                  *
 *                           Cartesian components (eV/A)                            *
 * -------------------------------------------------------------------------------- *
 *                         x                    y                    z              *
 *                                                                                  *
 * Si              1      0.00000              0.00023              0.00000         *
 * Si              2      0.00000              0.00023              0.00000         *
 * Si              3      0.00000              0.00023              0.00000         *
 * Si              4      0.00000              0.00023              0.00000         *
 * Si              5     -0.00000             -0.00023             -0.00000         *
 * Si              6     -0.00000             -0.00023             -0.00000         *
 * Si              7     -0.00000             -0.00023             -0.00000         *
 * Si              8     -0.00000             -0.00023             -0.00000         *
 *                                                                                  *
 ************************************************************************************
  
 +------------+-------------+-------------+-----------------+ <-- min BFGS
 |    Step    |   lambda    |   F.delta'  |    enthalpy     | <-- min BFGS
 +------------+-------------+-------------+-----------------+ <-- min BFGS
 |  previous  |    0.000000 |    0.000296 |     -858.566456 | <-- min BFGS
 | trial step |    1.000000 |    0.000129 |     -858.566456 | <-- min BFGS
 +------------+-------------+-------------+-----------------+ <-- min BFGS
  
 BFGS: finished iteration     3 with enthalpy= -8.58566456E+002 eV
  
 +-----------+-----------------+-----------------+------------+-----+ <-- BFGS
 | Parameter |      value      |    tolerance    |    units   | OK? | <-- BFGS
 +-----------+-----------------+-----------------+------------+-----+ <-- BFGS
 |  dE/ion   |   3.092763E-008 |   5.000000E-006 |         eV | Yes | <-- BFGS
 |  |F|max   |   2.287304E-004 |   1.000000E-002 |       eV/A | Yes | <-- BFGS
 |  |dR|max  |   2.064103E-005 |   5.000000E-004 |          A | Yes | <-- BFGS
 +-----------+-----------------+-----------------+------------+-----+ <-- BFGS
  
 BFGS: Geometry optimization completed successfully.

================================================================================
 BFGS: Final Configuration:
================================================================================
 
                           -------------------------------
                                     Cell Contents
                           -------------------------------
 
            xxxxxxxxxxxxxxxxxxxxxxxxxxxxxxxxxxxxxxxxxxxxxxxxxxxxxxxxxxxxxxxxx
            x  Element         Atom        Fractional coordinates of atoms  x
            x                 Number           u          v          w      x
            x---------------------------------------------------------------x
            x  Si                1         0.000000   0.002225  -0.000000   x
            x  Si                2        -0.000000   0.502225   0.500000   x
            x  Si                3         0.500000   0.002225   0.500000   x
            x  Si                4         0.500000   0.502225  -0.000000   x
            x  Si                5         0.750000   0.247775   0.750000   x
            x  Si                6         0.250000   0.247775   0.250000   x
            x  Si                7         0.250000   0.747775   0.750000   x
            x  Si                8         0.750000   0.747775   0.250000   x
            xxxxxxxxxxxxxxxxxxxxxxxxxxxxxxxxxxxxxxxxxxxxxxxxxxxxxxxxxxxxxxxxx
 
 
 BFGS: Final Enthalpy     = -8.58566456E+002 eV
 BFGS: Final <frequency>  =     518.16532 cm-1
 
 ************************************** Forces **************************************
 *                                                                                  *
 *                           Cartesian components (eV/A)                            *
 * -------------------------------------------------------------------------------- *
 *                         x                    y                    z              *
 *                                                                                  *
 * Si              1      0.00000              0.00023              0.00000         *
 * Si              2      0.00000              0.00023              0.00000         *
 * Si              3      0.00000              0.00023              0.00000         *
 * Si              4      0.00000              0.00023              0.00000         *
 * Si              5     -0.00000             -0.00023             -0.00000         *
 * Si              6     -0.00000             -0.00023             -0.00000         *
 * Si              7     -0.00000             -0.00023             -0.00000         *
 * Si              8     -0.00000             -0.00023             -0.00000         *
 *                                                                                  *
 ************************************************************************************
 
 ***************** Stress Tensor *****************
 *                                               *
 *          Cartesian components (GPa)           *
 * --------------------------------------------- *
 *             x             y             z     *
 *                                               *
 *  x      2.840132      0.000002      2.890071  *
 *  y      0.000002      1.043959      0.000003  *
 *  z      2.890071      0.000003      0.928225  *
 *                                               *
 *  Pressure:   -1.6041                          *
 *                                               *
 *************************************************

Writing analysis data to Si.castep_bin

Writing model to Si.check
 
 A BibTeX formatted list of references used in this run has been written to 
 Si.bib
 
Initialisation time =      0.67 s
Calculation time    =    240.90 s
Finalisation time   =      0.58 s
Total time          =    242.14 s
  
Overall parallel efficiency rating: Excellent (99%)                             
  
Data was distributed by:-
k-point (8-way); efficiency rating: Ideal (100%)                                
  
Parallel notes:
1) Calculation only took 241.8 s, so efficiency estimates may be inaccurate.    
