 Job started on host YOS-20180822FRE
 at Fri May  3 02:02:44 2019

 +-------------------------------------------------+
 |                                                 |
 |      CCC   AA    SSS  TTTTT  EEEEE  PPPP        |
 |     C     A  A  S       T    E      P   P       |
 |     C     AAAA   SS     T    EEE    PPPP        |
 |     C     A  A     S    T    E      P           |
 |      CCC  A  A  SSS     T    EEEEE  P           |
 |                                                 |
 +-------------------------------------------------+
 |                                                 |
 | Materials Studio CASTEP version 2017 R2         |
 | Ab Initio Total Energy Program                  |
 |                                                 |
 | Authors:                                        |
 | M. Segall, M. Probert, C. Pickard, P. Hasnip,   |
 | S. Clark, K. Refson, J. R. Yates, M. Payne      |
 |                                                 |
 | Contributors:                                   |
 | P. Lindan, P. Haynes, J. White, V. Milman,      |
 | N. Govind, M. Gibson, P. Tulip, V. Cocula,      |
 | B. Montanari, D. Quigley, M. Glover,            |
 | L. Bernasconi, A. Perlov, M. Plummer,           |
 | E. McNellis, J. Meyer, J. Gale, D. Jochym       |
 | J. Aarons, B. Walker, R. Gillen, D. Jones       |
 | T. Green, I. J. Bush, C. J. Armstrong,          |
 | E. J. Higgins, E. L. Brown, M. S. McFly,        |
 | J. Wilkins, B-C. Shih, P. J. P. Byrne           |
 |                                                 |
 | Copyright (c) 2000 - 2016                       |
 |                                                 |
 | Please cite                                     |
 |                                                 |
 |     "First principles methods using CASTEP"     |
 |                                                 |
 |         Zeitschrift fuer Kristallographie       |
 |           220(5-6) pp. 567-570 (2005)           |
 |                                                 |
 | S. J. Clark, M. D. Segall, C. J. Pickard,       |
 | P. J. Hasnip, M. J. Probert, K. Refson,         |
 | M. C. Payne                                     |
 |                                                 |
 |       in all publications arising from          |
 |              your use of CASTEP                 |
 |                                                 |
 +-------------------------------------------------+
 
 
 This version was compiled for i686-windows-msvc2013 on Dec 07 2016
 Code version: 7217
 Intel(R) Math Kernel Library Version 11.1.2 
 Fundamental constants values: CODATA 2010
 
License checkout of MS_castep successful
 
 
 Pseudo atomic calculation performed for Si 3s2 3p2
 
 Converged in 17 iterations to a total energy of -101.9015 eV
 
 Calculation parallelised over 8 processes.
 Data is distributed by k-point(8-way)

 ************************************ Title ************************************
 CASTEP calculation from Materials Studio

 ***************************** General Parameters ******************************
  
 output verbosity                               : normal  (1)
 write checkpoint data to                       : Si.check
 type of calculation                            : geometry optimization
 stress calculation                             : on
 density difference calculation                 : off
 electron localisation func (ELF) calculation   : off
 Hirshfeld analysis                             : off
 unlimited duration calculation
 timing information                             : on
 memory usage estimate                          : on
 write final potential to formatted file        : off
 write final density to formatted file          : off
 write BibTeX reference list                    : on
 write OTFG pseudopotential files               : on
 write electrostatic potential file             : on
 write bands file                               : on
 checkpoint writing                             : both castep_bin and check files
  
 output         length unit                     : A
 output           mass unit                     : amu
 output           time unit                     : ps
 output         charge unit                     : e
 output           spin unit                     : hbar/2
 output         energy unit                     : eV
 output          force unit                     : eV/A
 output       velocity unit                     : A/ps
 output       pressure unit                     : GPa
 output     inv_length unit                     : 1/A
 output      frequency unit                     : cm-1
 output force constant unit                     : eV/A**2
 output         volume unit                     : A**3
 output   IR intensity unit                     : (D/A)**2/amu
 output         dipole unit                     : D
 output         efield unit                     : eV/A/e
 output        entropy unit                     : J/mol/K
  
 wavefunctions paging                           : none
 random number generator seed                   : randomised (20245324)
 data distribution                              : optimal for this architecture
 optimization strategy                          : balance speed and memory

 *********************** Exchange-Correlation Parameters ***********************
  
 using functional                               : Perdew Burke Ernzerhof
 relativistic treatment                         : Koelling-Harmon
 DFT+D: Semi-empirical dispersion correction    : off

 ************************* Pseudopotential Parameters **************************
  
 pseudopotential representation                 : reciprocal space
 <beta|phi> representation                      : reciprocal space
 spin-orbit coupling                            : off

 **************************** Basis Set Parameters *****************************
  
 plane wave basis set cut-off                   :   320.0000   eV
 size of standard grid                          :     2.0000
 size of   fine   grid                          :     3.0000
 size of   fine   gmax                          :    27.4938   1/A
 largest prime factor in FFT                    :          5
 finite basis set correction                    : automatic
 number of sample energies                      :          3
           sample  spacing                      :     5.0000   eV

 **************************** Electronic Parameters ****************************
  
 number of  electrons                           :  32.00    
 net charge of system                           :  0.000    
 treating system as non-spin-polarized
 number of bands                                :         16

 ********************* Electronic Minimization Parameters **********************
  
 Method: Treating system as non-metallic,
         and number of  SD  steps               :          1
         and number of  CG  steps               :          4
  
 total energy / atom convergence tol.           : 0.5000E-06   eV
 eigen-energy convergence tolerance             : 0.2500E-06   eV
 max force / atom convergence tol.              : ignored
 convergence tolerance window                   :          3   cycles
 max. number of SCF cycles                      :        100
 periodic dipole correction                     : NONE

 ************************** Density Mixing Parameters **************************
  
 density-mixing scheme                          : Pulay
 max. length of mixing history                  :         20
 charge density mixing amplitude                : 0.5000    
 cut-off energy for mixing                      :  320.0       eV
 charge density mixing g-vector                 :  1.500       1/A

 ********************** Geometry Optimization Parameters ***********************
  
 optimization method                            : BFGS
 variable cell method                           : fixed basis quality
 max. number of steps                           :        100
 estimated bulk modulus                         :  500.0       GPa
 estimated <frequency>                          :  1668.       cm-1
 geom line minimiser                            : on
 with line minimiser tolerance                  :     0.4000
 total energy convergence tolerance             : 0.5000E-05   eV/atom
        max ionic |force| tolerance             : 0.1000E-01   eV/A
 max ionic |displacement| tolerance             : 0.5000E-03   A
   max |stress component| tolerance             : 0.2000E-01   GPa
 convergence tolerance window                   :          2   steps
 backup results every                           :          5   steps
 write geom trajectory file                     : on

 *******************************************************************************
  
 
                           -------------------------------
                                      Unit Cell
                           -------------------------------
        Real Lattice(A)                      Reciprocal Lattice(1/A)
   5.3531643   0.0000000  -0.1104327        1.1742226   0.0000000   0.0237339
   0.0000000   5.4647128  -0.0000000       -0.0000000   1.1497741  -0.0000000
  -0.1104326   0.0000000   5.4635970        0.0237339   0.0000000   1.1504887
 
                       Lattice parameters(A)       Cell Angles
                    a =    5.354303          alpha =   90.000000
                    b =    5.464713          beta  =   92.339741
                    c =    5.464713          gamma =   90.000000
 
                       Current cell volume =  159.762721       A**3
                                   density =    1.406361   AMU/A**3
                                           =    2.335317     g/cm^3
 
                           -------------------------------
                                     Cell Contents
                           -------------------------------
                         Total number of ions in cell =    8
                      Total number of species in cell =    1
                        Max number of any one species =    8
 
            xxxxxxxxxxxxxxxxxxxxxxxxxxxxxxxxxxxxxxxxxxxxxxxxxxxxxxxxxxxx
            x  Element    Atom        Fractional coordinates of atoms  x
            x            Number           u          v          w      x
            x----------------------------------------------------------x
            x  Si           1         0.000000  -0.000000  -0.000000   x 
            x  Si           2         0.000000   0.500000   0.500000   x 
            x  Si           3         0.500000   0.000000   0.500000   x 
            x  Si           4         0.500000   0.500000  -0.000000   x 
            x  Si           5         0.750000   0.250000   0.750000   x 
            x  Si           6         0.250000   0.250000   0.250000   x 
            x  Si           7         0.250000   0.750000   0.750000   x 
            x  Si           8         0.750000   0.750000   0.250000   x 
            xxxxxxxxxxxxxxxxxxxxxxxxxxxxxxxxxxxxxxxxxxxxxxxxxxxxxxxxxxxx
 
 
                         No user defined ionic velocities
 
                           -------------------------------
                                   Details of Species
                           -------------------------------
 
                               Mass of species in AMU
                                    Si   28.0849991
 
                          Electric Quadrupole Moment (Barn)
                                    Si    1.0000000 No Isotope Defined
 
                          Files used for pseudopotentials:
                                    Si D:\PROGRA~1\BIOVIA\MATERI~1.2\share\Resources\Quantum\Castep\Potentials\Si_00PBE.usp
 
                           -------------------------------
                              k-Points For BZ Sampling
                           -------------------------------
                       MP grid size for SCF calculation is  8  8  8
                            with an offset of   0.000  0.000  0.000
                       Number of kpoints used =           256
 
                           -------------------------------
                               Symmetry and Constraints
                           -------------------------------
 
                      Cell is a supercell containing 4 primitive cells
                      Maximum deviation from symmetry =  0.00000         ANG
 
                      Number of symmetry operations   =           1
         There are no ionic constraints specified or generated for this cell
                      Point group of crystal =     1: C1, 1, 1
                      Space group of crystal =    15: C2/c, -C 2yc
 
             Set iprint > 1 for details on symmetry rotations/translations
 
                         Centre of mass is NOT constrained
 
                         Number of cell constraints= 6
                         Cell constraints are:  0 0 0 0 0 0
 
                         External pressure/stress (GPa)
                          0.00000   0.00000   0.00000
                                    0.00000   0.00000
                                              0.00000
  
+---------------- MEMORY AND SCRATCH DISK ESTIMATES PER PROCESS --------------+
|                                                     Memory          Disk    |
| Baseline code, static data and system overhead        0.0 MB         0.0 MB |
| BLAS internal memory storage                          0.0 MB         0.0 MB |
| Model and support data                               51.4 MB        31.0 MB |
| Electronic energy minimisation requirements          46.7 MB         0.0 MB |
| Force calculation requirements                       14.2 MB         0.0 MB |
| Stress calculation requirements                      17.5 MB         0.0 MB |
|                                               ----------------------------- |
| Approx. total storage required per process           98.1 MB        31.0 MB |
|                                                                             |
| Requirements will fluctuate during execution and may exceed these estimates |
+-----------------------------------------------------------------------------+
Calculating finite basis set correction with  3 cut-off energies.
Calculating total energy with cut-off of  310.000 eV.
------------------------------------------------------------------------ <-- SCF
SCF loop      Energy                           Energy gain       Timer   <-- SCF
                                               per atom          (sec)   <-- SCF
------------------------------------------------------------------------ <-- SCF
Initial   4.02066799E+002                                          1.78  <-- SCF
      1  -7.42182280E+002                    1.43031135E+002       9.58  <-- SCF
      2  -8.55770634E+002                    1.41985442E+001      15.55  <-- SCF
      3  -8.58978591E+002                    4.00994645E-001      20.79  <-- SCF
      4  -8.58695211E+002                   -3.54225429E-002      28.78  <-- SCF
      5  -8.58518431E+002                   -2.20975740E-002      35.41  <-- SCF
      6  -8.58531976E+002                    1.69316171E-003      43.37  <-- SCF
      7  -8.58532723E+002                    9.34546823E-005      50.72  <-- SCF
      8  -8.58532770E+002                    5.80413203E-006      56.78  <-- SCF
      9  -8.58532771E+002                    1.49915579E-007      61.43  <-- SCF
     10  -8.58532771E+002                    3.00130074E-008      66.11  <-- SCF
------------------------------------------------------------------------ <-- SCF
 
Final energy =  -858.5327713057     eV
(energy not corrected for finite basis set)
 
Calculating total energy with cut-off of  315.000 eV.
------------------------------------------------------------------------ <-- SCF
SCF loop      Energy                           Energy gain       Timer   <-- SCF
                                               per atom          (sec)   <-- SCF
------------------------------------------------------------------------ <-- SCF
Initial  -8.58532771E+002                                         68.44  <-- SCF
      1  -8.58534488E+002                    2.14589328E-004      74.58  <-- SCF
      2  -8.58534489E+002                    1.78754380E-007      79.40  <-- SCF
      3  -8.58534491E+002                    2.05000596E-007      84.27  <-- SCF
      4  -8.58534491E+002                    4.40793056E-008      89.11  <-- SCF
------------------------------------------------------------------------ <-- SCF
 
Final energy =  -858.5344914319     eV
(energy not corrected for finite basis set)
 
Calculating total energy with cut-off of  320.000 eV.
------------------------------------------------------------------------ <-- SCF
SCF loop      Energy                           Energy gain       Timer   <-- SCF
                                               per atom          (sec)   <-- SCF
------------------------------------------------------------------------ <-- SCF
Initial  -8.58534491E+002                                         91.37  <-- SCF
      1  -8.58535915E+002                    1.77972745E-004      97.67  <-- SCF
      2  -8.58535916E+002                    1.37311962E-007     102.51  <-- SCF
      3  -8.58535918E+002                    1.75075091E-007     107.42  <-- SCF
      4  -8.58535918E+002                    3.32064966E-008     112.31  <-- SCF
------------------------------------------------------------------------ <-- SCF
 
Final energy =  -858.5359179798     eV
(energy not corrected for finite basis set)
 
 For future reference: finite basis dEtot/dlog(Ecut) =      -0.098769eV
 Total energy corrected for finite basis set =    -858.535915 eV
 
+---------------- MEMORY AND SCRATCH DISK ESTIMATES PER PROCESS --------------+
|                                                     Memory          Disk    |
| Model and support data                               55.5 MB        31.0 MB |
| Electronic energy minimisation requirements          46.7 MB         0.0 MB |
| Geometry minimisation requirements                   65.6 MB         0.0 MB |
|                                               ----------------------------- |
| Approx. total storage required per process          167.8 MB        31.0 MB |
|                                                                             |
| Requirements will fluctuate during execution and may exceed these estimates |
+-----------------------------------------------------------------------------+
 
 
 ************************************** Forces **************************************
 *                                                                                  *
 *                           Cartesian components (eV/A)                            *
 * -------------------------------------------------------------------------------- *
 *                         x                    y                    z              *
 *                                                                                  *
 * Si              1      0.00000             -0.39151             -0.00000         *
 * Si              2      0.00000             -0.39151             -0.00000         *
 * Si              3     -0.00000             -0.39151             -0.00000         *
 * Si              4     -0.00000             -0.39151             -0.00000         *
 * Si              5     -0.00000              0.39151              0.00000         *
 * Si              6     -0.00000              0.39151              0.00000         *
 * Si              7      0.00000              0.39151              0.00000         *
 * Si              8      0.00000              0.39151              0.00000         *
 *                                                                                  *
 ************************************************************************************
 BFGS: finished iteration     0 with enthalpy= -8.58535918E+002 eV
  
 +-----------+-----------------+-----------------+------------+-----+ <-- BFGS
 | Parameter |      value      |    tolerance    |    units   | OK? | <-- BFGS
 +-----------+-----------------+-----------------+------------+-----+ <-- BFGS
 |  dE/ion   |   0.000000E+000 |   5.000000E-006 |         eV | No  | <-- BFGS
 |  |F|max   |   3.915123E-001 |   1.000000E-002 |       eV/A | No  | <-- BFGS
 |  |dR|max  |   0.000000E+000 |   5.000000E-004 |          A | No  | <-- BFGS
 +-----------+-----------------+-----------------+------------+-----+ <-- BFGS
  

================================================================================
 Starting BFGS iteration          1 ...
================================================================================
  
 +------------+-------------+-------------+-----------------+ <-- min BFGS
 |    Step    |   lambda    |   F.delta'  |    enthalpy     | <-- min BFGS
 +------------+-------------+-------------+-----------------+ <-- min BFGS
 |  previous  |    0.000000 |    0.222384 |     -858.535918 | <-- min BFGS
 +------------+-------------+-------------+-----------------+ <-- min BFGS
  

--------------------------------------------------------------------------------
 BFGS: starting iteration         1 with trial guess (lambda=  1.000000)
--------------------------------------------------------------------------------
 
                           -------------------------------
                                     Cell Contents
                           -------------------------------
 
            xxxxxxxxxxxxxxxxxxxxxxxxxxxxxxxxxxxxxxxxxxxxxxxxxxxxxxxxxxxxxxxxx
            x  Element         Atom        Fractional coordinates of atoms  x
            x                 Number           u          v          w      x
            x---------------------------------------------------------------x
            x  Si                1         0.000000  -0.000249  -0.000000   x
            x  Si                2         0.000000   0.499751   0.500000   x
            x  Si                3         0.500000  -0.000249   0.500000   x
            x  Si                4         0.500000   0.499751  -0.000000   x
            x  Si                5         0.750000   0.250249   0.750000   x
            x  Si                6         0.250000   0.250249   0.250000   x
            x  Si                7         0.250000   0.750249   0.750000   x
            x  Si                8         0.750000   0.750249   0.250000   x
            xxxxxxxxxxxxxxxxxxxxxxxxxxxxxxxxxxxxxxxxxxxxxxxxxxxxxxxxxxxxxxxxx
 
 
------------------------------------------------------------------------ <-- SCF
SCF loop      Energy                           Energy gain       Timer   <-- SCF
                                               per atom          (sec)   <-- SCF
------------------------------------------------------------------------ <-- SCF
Initial  -8.58525834E+002                                        116.47  <-- SCF
      1  -8.58539959E+002                    1.76561873E-003     122.82  <-- SCF
      2  -8.58539968E+002                    1.12464306E-006     128.73  <-- SCF
      3  -8.58539969E+002                    1.76190072E-007     133.65  <-- SCF
      4  -8.58539970E+002                    9.47618740E-008     138.53  <-- SCF
------------------------------------------------------------------------ <-- SCF
 
Final energy =  -858.5399699352     eV
(energy not corrected for finite basis set)
 
 
 ************************************** Forces **************************************
 *                                                                                  *
 *                           Cartesian components (eV/A)                            *
 * -------------------------------------------------------------------------------- *
 *                         x                    y                    z              *
 *                                                                                  *
 * Si              1     -0.00000             -0.35191             -0.00000         *
 * Si              2     -0.00000             -0.35191             -0.00000         *
 * Si              3     -0.00000             -0.35191              0.00000         *
 * Si              4     -0.00000             -0.35191              0.00000         *
 * Si              5      0.00000              0.35191             -0.00000         *
 * Si              6      0.00000              0.35191              0.00000         *
 * Si              7      0.00000              0.35191             -0.00000         *
 * Si              8      0.00000              0.35191              0.00000         *
 *                                                                                  *
 ************************************************************************************
  
 +------------+-------------+-------------+-----------------+ <-- min BFGS
 |    Step    |   lambda    |   F.delta'  |    enthalpy     | <-- min BFGS
 +------------+-------------+-------------+-----------------+ <-- min BFGS
 |  previous  |    0.000000 |    0.222384 |     -858.535918 | <-- min BFGS
 | trial step |    1.000000 |    0.199889 |     -858.539970 | <-- min BFGS
 +------------+-------------+-------------+-----------------+ <-- min BFGS
  

--------------------------------------------------------------------------------
 BFGS: improving iteration         1 with line minimization (lambda=  9.885721)
--------------------------------------------------------------------------------
 
                           -------------------------------
                                     Cell Contents
                           -------------------------------
 
            xxxxxxxxxxxxxxxxxxxxxxxxxxxxxxxxxxxxxxxxxxxxxxxxxxxxxxxxxxxxxxxxx
            x  Element         Atom        Fractional coordinates of atoms  x
            x                 Number           u          v          w      x
            x---------------------------------------------------------------x
            x  Si                1         0.000000  -0.002465  -0.000000   x
            x  Si                2         0.000000   0.497535   0.500000   x
            x  Si                3         0.500000  -0.002465   0.500000   x
            x  Si                4         0.500000   0.497535  -0.000000   x
            x  Si                5         0.750000   0.252465   0.750000   x
            x  Si                6         0.250000   0.252465   0.250000   x
            x  Si                7         0.250000   0.752465   0.750000   x
            x  Si                8         0.750000   0.752465   0.250000   x
            xxxxxxxxxxxxxxxxxxxxxxxxxxxxxxxxxxxxxxxxxxxxxxxxxxxxxxxxxxxxxxxxx
 
 
------------------------------------------------------------------------ <-- SCF
SCF loop      Energy                           Energy gain       Timer   <-- SCF
                                               per atom          (sec)   <-- SCF
------------------------------------------------------------------------ <-- SCF
Initial  -8.58461726E+002                                        142.65  <-- SCF
      1  -8.58556583E+002                    1.18571420E-002     148.87  <-- SCF
      2  -8.58557430E+002                    1.05858311E-004     157.55  <-- SCF
      3  -8.58557478E+002                    5.98251104E-006     164.85  <-- SCF
      4  -8.58557514E+002                    4.56740116E-006     171.69  <-- SCF
      5  -8.58557514E+002                    3.66219257E-008     176.59  <-- SCF
      6  -8.58557515E+002                    3.45787998E-008     181.51  <-- SCF
------------------------------------------------------------------------ <-- SCF
 
Final energy =  -858.5575147174     eV
(energy not corrected for finite basis set)
 
 
 ************************************** Forces **************************************
 *                                                                                  *
 *                           Cartesian components (eV/A)                            *
 * -------------------------------------------------------------------------------- *
 *                         x                    y                    z              *
 *                                                                                  *
 * Si              1     -0.00000             -0.01484              0.00000         *
 * Si              2     -0.00000             -0.01484              0.00000         *
 * Si              3      0.00000             -0.01484              0.00000         *
 * Si              4      0.00000             -0.01484              0.00000         *
 * Si              5     -0.00000              0.01484             -0.00000         *
 * Si              6      0.00000              0.01484             -0.00000         *
 * Si              7     -0.00000              0.01484             -0.00000         *
 * Si              8     -0.00000              0.01484             -0.00000         *
 *                                                                                  *
 ************************************************************************************
  
 +------------+-------------+-------------+-----------------+ <-- min BFGS
 |    Step    |   lambda    |   F.delta'  |    enthalpy     | <-- min BFGS
 +------------+-------------+-------------+-----------------+ <-- min BFGS
 |  previous  |    0.000000 |    0.222384 |     -858.535918 | <-- min BFGS
 | trial step |    1.000000 |    0.199889 |     -858.539970 | <-- min BFGS
 |  line step |    9.885721 |    0.008428 |     -858.557515 | <-- min BFGS
 +------------+-------------+-------------+-----------------+ <-- min BFGS
  
 BFGS: finished iteration     1 with enthalpy= -8.58557515E+002 eV
  
 +-----------+-----------------+-----------------+------------+-----+ <-- BFGS
 | Parameter |      value      |    tolerance    |    units   | OK? | <-- BFGS
 +-----------+-----------------+-----------------+------------+-----+ <-- BFGS
 |  dE/ion   |   2.699592E-003 |   5.000000E-006 |         eV | No  | <-- BFGS
 |  |F|max   |   1.483900E-002 |   1.000000E-002 |       eV/A | No  | <-- BFGS
 |  |dR|max  |   1.347227E-002 |   5.000000E-004 |          A | No  | <-- BFGS
 +-----------+-----------------+-----------------+------------+-----+ <-- BFGS
  

================================================================================
 Starting BFGS iteration          2 ...
================================================================================
  
 +------------+-------------+-------------+-----------------+ <-- min BFGS
 |    Step    |   lambda    |   F.delta'  |    enthalpy     | <-- min BFGS
 +------------+-------------+-------------+-----------------+ <-- min BFGS
 |  previous  |    0.000000 |    0.008428 |     -858.557515 | <-- min BFGS
 +------------+-------------+-------------+-----------------+ <-- min BFGS
  

--------------------------------------------------------------------------------
 BFGS: starting iteration         2 with trial guess (lambda=  1.000000)
--------------------------------------------------------------------------------
 
                           -------------------------------
                                     Cell Contents
                           -------------------------------
 
            xxxxxxxxxxxxxxxxxxxxxxxxxxxxxxxxxxxxxxxxxxxxxxxxxxxxxxxxxxxxxxxxx
            x  Element         Atom        Fractional coordinates of atoms  x
            x                 Number           u          v          w      x
            x---------------------------------------------------------------x
            x  Si                1         0.000000  -0.002562  -0.000000   x
            x  Si                2         0.000000   0.497438   0.500000   x
            x  Si                3         0.500000  -0.002562   0.500000   x
            x  Si                4         0.500000   0.497438  -0.000000   x
            x  Si                5         0.750000   0.252562   0.750000   x
            x  Si                6         0.250000   0.252562   0.250000   x
            x  Si                7         0.250000   0.752562   0.750000   x
            x  Si                8         0.750000   0.752562   0.250000   x
            xxxxxxxxxxxxxxxxxxxxxxxxxxxxxxxxxxxxxxxxxxxxxxxxxxxxxxxxxxxxxxxxx
 
 
------------------------------------------------------------------------ <-- SCF
SCF loop      Energy                           Energy gain       Timer   <-- SCF
                                               per atom          (sec)   <-- SCF
------------------------------------------------------------------------ <-- SCF
Initial  -8.58553166E+002                                        185.66  <-- SCF
      1  -8.58557546E+002                    5.47478258E-004     192.01  <-- SCF
      2  -8.58557547E+002                    1.52336133E-007     196.94  <-- SCF
      3  -8.58557548E+002                    4.91892532E-008     201.88  <-- SCF
      4  -8.58557548E+002                    2.51659292E-008     206.84  <-- SCF
------------------------------------------------------------------------ <-- SCF
 
Final energy =  -858.5575480204     eV
(energy not corrected for finite basis set)
 
 
 ************************************** Forces **************************************
 *                                                                                  *
 *                           Cartesian components (eV/A)                            *
 * -------------------------------------------------------------------------------- *
 *                         x                    y                    z              *
 *                                                                                  *
 * Si              1     -0.00000             -0.00053              0.00000         *
 * Si              2     -0.00000             -0.00053              0.00000         *
 * Si              3      0.00000             -0.00053              0.00000         *
 * Si              4      0.00000             -0.00053              0.00000         *
 * Si              5     -0.00000              0.00053             -0.00000         *
 * Si              6      0.00000              0.00053             -0.00000         *
 * Si              7     -0.00000              0.00053             -0.00000         *
 * Si              8     -0.00000              0.00053             -0.00000         *
 *                                                                                  *
 ************************************************************************************
  
 +------------+-------------+-------------+-----------------+ <-- min BFGS
 |    Step    |   lambda    |   F.delta'  |    enthalpy     | <-- min BFGS
 +------------+-------------+-------------+-----------------+ <-- min BFGS
 |  previous  |    0.000000 |    0.008428 |     -858.557515 | <-- min BFGS
 | trial step |    1.000000 |    0.000301 |     -858.557548 | <-- min BFGS
 +------------+-------------+-------------+-----------------+ <-- min BFGS
  
 BFGS: finished iteration     2 with enthalpy= -8.58557548E+002 eV
  
 +-----------+-----------------+-----------------+------------+-----+ <-- BFGS
 | Parameter |      value      |    tolerance    |    units   | OK? | <-- BFGS
 +-----------+-----------------+-----------------+------------+-----+ <-- BFGS
 |  dE/ion   |   4.162880E-006 |   5.000000E-006 |         eV | Yes | <-- BFGS
 |  |F|max   |   5.311747E-004 |   1.000000E-002 |       eV/A | Yes | <-- BFGS
 |  |dR|max  |   5.307128E-004 |   5.000000E-004 |          A | No  | <-- BFGS
 +-----------+-----------------+-----------------+------------+-----+ <-- BFGS
  

================================================================================
 Starting BFGS iteration          3 ...
================================================================================
  
 +------------+-------------+-------------+-----------------+ <-- min BFGS
 |    Step    |   lambda    |   F.delta'  |    enthalpy     | <-- min BFGS
 +------------+-------------+-------------+-----------------+ <-- min BFGS
 |  previous  |    0.000000 |    0.000301 |     -858.557548 | <-- min BFGS
 +------------+-------------+-------------+-----------------+ <-- min BFGS
  

--------------------------------------------------------------------------------
 BFGS: starting iteration         3 with trial guess (lambda=  1.000000)
--------------------------------------------------------------------------------
 
                           -------------------------------
                                     Cell Contents
                           -------------------------------
 
            xxxxxxxxxxxxxxxxxxxxxxxxxxxxxxxxxxxxxxxxxxxxxxxxxxxxxxxxxxxxxxxxx
            x  Element         Atom        Fractional coordinates of atoms  x
            x                 Number           u          v          w      x
            x---------------------------------------------------------------x
            x  Si                1         0.000000  -0.002566  -0.000000   x
            x  Si                2         0.000000   0.497434   0.500000   x
            x  Si                3         0.500000  -0.002566   0.500000   x
            x  Si                4         0.500000   0.497434  -0.000000   x
            x  Si                5         0.750000   0.252566   0.750000   x
            x  Si                6         0.250000   0.252566   0.250000   x
            x  Si                7         0.250000   0.752566   0.750000   x
            x  Si                8         0.750000   0.752566   0.250000   x
            xxxxxxxxxxxxxxxxxxxxxxxxxxxxxxxxxxxxxxxxxxxxxxxxxxxxxxxxxxxxxxxxx
 
 
------------------------------------------------------------------------ <-- SCF
SCF loop      Energy                           Energy gain       Timer   <-- SCF
                                               per atom          (sec)   <-- SCF
------------------------------------------------------------------------ <-- SCF
Initial  -8.58557522E+002                                        211.02  <-- SCF
      1  -8.58557548E+002                    3.29951003E-006     215.28  <-- SCF
      2  -8.58557548E+002                    5.01872337E-009     220.23  <-- SCF
      3  -8.58557548E+002                    2.29922810E-009     225.13  <-- SCF
      4  -8.58557548E+002                    1.09905341E-009     230.05  <-- SCF
------------------------------------------------------------------------ <-- SCF
 
Final energy =  -858.5575481915     eV
(energy not corrected for finite basis set)
 
 
 ************************************** Forces **************************************
 *                                                                                  *
 *                           Cartesian components (eV/A)                            *
 * -------------------------------------------------------------------------------- *
 *                         x                    y                    z              *
 *                                                                                  *
 * Si              1     -0.00000             -0.00005              0.00000         *
 * Si              2     -0.00000             -0.00005              0.00000         *
 * Si              3      0.00000             -0.00005              0.00000         *
 * Si              4      0.00000             -0.00005              0.00000         *
 * Si              5     -0.00000              0.00005             -0.00000         *
 * Si              6      0.00000              0.00005             -0.00000         *
 * Si              7     -0.00000              0.00005             -0.00000         *
 * Si              8     -0.00000              0.00005             -0.00000         *
 *                                                                                  *
 ************************************************************************************
  
 +------------+-------------+-------------+-----------------+ <-- min BFGS
 |    Step    |   lambda    |   F.delta'  |    enthalpy     | <-- min BFGS
 +------------+-------------+-------------+-----------------+ <-- min BFGS
 |  previous  |    0.000000 |    0.000301 |     -858.557548 | <-- min BFGS
 | trial step |    1.000000 |    0.000027 |     -858.557548 | <-- min BFGS
 +------------+-------------+-------------+-----------------+ <-- min BFGS
  
 BFGS: finished iteration     3 with enthalpy= -8.58557548E+002 eV
  
 +-----------+-----------------+-----------------+------------+-----+ <-- BFGS
 | Parameter |      value      |    tolerance    |    units   | OK? | <-- BFGS
 +-----------+-----------------+-----------------+------------+-----+ <-- BFGS
 |  dE/ion   |   2.138728E-008 |   5.000000E-006 |         eV | Yes | <-- BFGS
 |  |F|max   |   4.863097E-005 |   1.000000E-002 |       eV/A | Yes | <-- BFGS
 |  |dR|max  |   1.967800E-005 |   5.000000E-004 |          A | Yes | <-- BFGS
 +-----------+-----------------+-----------------+------------+-----+ <-- BFGS
  
 BFGS: Geometry optimization completed successfully.

================================================================================
 BFGS: Final Configuration:
================================================================================
 
                           -------------------------------
                                     Cell Contents
                           -------------------------------
 
            xxxxxxxxxxxxxxxxxxxxxxxxxxxxxxxxxxxxxxxxxxxxxxxxxxxxxxxxxxxxxxxxx
            x  Element         Atom        Fractional coordinates of atoms  x
            x                 Number           u          v          w      x
            x---------------------------------------------------------------x
            x  Si                1         0.000000  -0.002566  -0.000000   x
            x  Si                2         0.000000   0.497434   0.500000   x
            x  Si                3         0.500000  -0.002566   0.500000   x
            x  Si                4         0.500000   0.497434  -0.000000   x
            x  Si                5         0.750000   0.252566   0.750000   x
            x  Si                6         0.250000   0.252566   0.250000   x
            x  Si                7         0.250000   0.752566   0.750000   x
            x  Si                8         0.750000   0.752566   0.250000   x
            xxxxxxxxxxxxxxxxxxxxxxxxxxxxxxxxxxxxxxxxxxxxxxxxxxxxxxxxxxxxxxxxx
 
 
 BFGS: Final Enthalpy     = -8.58557548E+002 eV
 BFGS: Final <frequency>  =     536.72113 cm-1
 
 ************************************** Forces **************************************
 *                                                                                  *
 *                           Cartesian components (eV/A)                            *
 * -------------------------------------------------------------------------------- *
 *                         x                    y                    z              *
 *                                                                                  *
 * Si              1     -0.00000             -0.00005              0.00000         *
 * Si              2     -0.00000             -0.00005              0.00000         *
 * Si              3      0.00000             -0.00005              0.00000         *
 * Si              4      0.00000             -0.00005              0.00000         *
 * Si              5     -0.00000              0.00005             -0.00000         *
 * Si              6      0.00000              0.00005             -0.00000         *
 * Si              7     -0.00000              0.00005             -0.00000         *
 * Si              8     -0.00000              0.00005             -0.00000         *
 *                                                                                  *
 ************************************************************************************
 
 ***************** Stress Tensor *****************
 *                                               *
 *          Cartesian components (GPa)           *
 * --------------------------------------------- *
 *             x             y             z     *
 *                                               *
 *  x     -3.259819      0.000005     -3.186739  *
 *  y      0.000005     -1.191100      0.000001  *
 *  z     -3.186739      0.000001     -1.337184  *
 *                                               *
 *  Pressure:    1.9294                          *
 *                                               *
 *************************************************

Writing analysis data to Si.castep_bin

Writing model to Si.check
 
 A BibTeX formatted list of references used in this run has been written to 
 Si.bib
 
Initialisation time =      0.64 s
Calculation time    =    241.13 s
Finalisation time   =      0.55 s
Total time          =    242.32 s
  
Overall parallel efficiency rating: Excellent (99%)                             
  
Data was distributed by:-
k-point (8-way); efficiency rating: Ideal (100%)                                
  
Parallel notes:
1) Calculation only took 241.9 s, so efficiency estimates may be inaccurate.    
