 Job started on host YOS-20180822FRE
 at Fri May  3 00:18:18 2019

 +-------------------------------------------------+
 |                                                 |
 |      CCC   AA    SSS  TTTTT  EEEEE  PPPP        |
 |     C     A  A  S       T    E      P   P       |
 |     C     AAAA   SS     T    EEE    PPPP        |
 |     C     A  A     S    T    E      P           |
 |      CCC  A  A  SSS     T    EEEEE  P           |
 |                                                 |
 +-------------------------------------------------+
 |                                                 |
 | Materials Studio CASTEP version 2017 R2         |
 | Ab Initio Total Energy Program                  |
 |                                                 |
 | Authors:                                        |
 | M. Segall, M. Probert, C. Pickard, P. Hasnip,   |
 | S. Clark, K. Refson, J. R. Yates, M. Payne      |
 |                                                 |
 | Contributors:                                   |
 | P. Lindan, P. Haynes, J. White, V. Milman,      |
 | N. Govind, M. Gibson, P. Tulip, V. Cocula,      |
 | B. Montanari, D. Quigley, M. Glover,            |
 | L. Bernasconi, A. Perlov, M. Plummer,           |
 | E. McNellis, J. Meyer, J. Gale, D. Jochym       |
 | J. Aarons, B. Walker, R. Gillen, D. Jones       |
 | T. Green, I. J. Bush, C. J. Armstrong,          |
 | E. J. Higgins, E. L. Brown, M. S. McFly,        |
 | J. Wilkins, B-C. Shih, P. J. P. Byrne           |
 |                                                 |
 | Copyright (c) 2000 - 2016                       |
 |                                                 |
 | Please cite                                     |
 |                                                 |
 |     "First principles methods using CASTEP"     |
 |                                                 |
 |         Zeitschrift fuer Kristallographie       |
 |           220(5-6) pp. 567-570 (2005)           |
 |                                                 |
 | S. J. Clark, M. D. Segall, C. J. Pickard,       |
 | P. J. Hasnip, M. J. Probert, K. Refson,         |
 | M. C. Payne                                     |
 |                                                 |
 |       in all publications arising from          |
 |              your use of CASTEP                 |
 |                                                 |
 +-------------------------------------------------+
 
 
 This version was compiled for i686-windows-msvc2013 on Dec 07 2016
 Code version: 7217
 Intel(R) Math Kernel Library Version 11.1.2 
 Fundamental constants values: CODATA 2010
 
License checkout of MS_castep successful
 
 
 Pseudo atomic calculation performed for Si 3s2 3p2
 
 Converged in 17 iterations to a total energy of -101.9015 eV
 
 Calculation parallelised over 8 processes.
 Data is distributed by k-point(8-way)

 ************************************ Title ************************************
 CASTEP calculation from Materials Studio

 ***************************** General Parameters ******************************
  
 output verbosity                               : normal  (1)
 write checkpoint data to                       : Si.check
 type of calculation                            : geometry optimization
 stress calculation                             : on
 density difference calculation                 : off
 electron localisation func (ELF) calculation   : off
 Hirshfeld analysis                             : off
 unlimited duration calculation
 timing information                             : on
 memory usage estimate                          : on
 write final potential to formatted file        : off
 write final density to formatted file          : off
 write BibTeX reference list                    : on
 write OTFG pseudopotential files               : on
 write electrostatic potential file             : on
 write bands file                               : on
 checkpoint writing                             : both castep_bin and check files
  
 output         length unit                     : A
 output           mass unit                     : amu
 output           time unit                     : ps
 output         charge unit                     : e
 output           spin unit                     : hbar/2
 output         energy unit                     : eV
 output          force unit                     : eV/A
 output       velocity unit                     : A/ps
 output       pressure unit                     : GPa
 output     inv_length unit                     : 1/A
 output      frequency unit                     : cm-1
 output force constant unit                     : eV/A**2
 output         volume unit                     : A**3
 output   IR intensity unit                     : (D/A)**2/amu
 output         dipole unit                     : D
 output         efield unit                     : eV/A/e
 output        entropy unit                     : J/mol/K
  
 wavefunctions paging                           : none
 random number generator seed                   : randomised (1819312)
 data distribution                              : optimal for this architecture
 optimization strategy                          : balance speed and memory

 *********************** Exchange-Correlation Parameters ***********************
  
 using functional                               : Perdew Burke Ernzerhof
 relativistic treatment                         : Koelling-Harmon
 DFT+D: Semi-empirical dispersion correction    : off

 ************************* Pseudopotential Parameters **************************
  
 pseudopotential representation                 : reciprocal space
 <beta|phi> representation                      : reciprocal space
 spin-orbit coupling                            : off

 **************************** Basis Set Parameters *****************************
  
 plane wave basis set cut-off                   :   320.0000   eV
 size of standard grid                          :     2.0000
 size of   fine   grid                          :     3.0000
 size of   fine   gmax                          :    27.4938   1/A
 largest prime factor in FFT                    :          5
 finite basis set correction                    : automatic
 number of sample energies                      :          3
           sample  spacing                      :     5.0000   eV

 **************************** Electronic Parameters ****************************
  
 number of  electrons                           :  32.00    
 net charge of system                           :  0.000    
 treating system as non-spin-polarized
 number of bands                                :         16

 ********************* Electronic Minimization Parameters **********************
  
 Method: Treating system as non-metallic,
         and number of  SD  steps               :          1
         and number of  CG  steps               :          4
  
 total energy / atom convergence tol.           : 0.5000E-06   eV
 eigen-energy convergence tolerance             : 0.2500E-06   eV
 max force / atom convergence tol.              : ignored
 convergence tolerance window                   :          3   cycles
 max. number of SCF cycles                      :        100
 periodic dipole correction                     : NONE

 ************************** Density Mixing Parameters **************************
  
 density-mixing scheme                          : Pulay
 max. length of mixing history                  :         20
 charge density mixing amplitude                : 0.5000    
 cut-off energy for mixing                      :  320.0       eV
 charge density mixing g-vector                 :  1.500       1/A

 ********************** Geometry Optimization Parameters ***********************
  
 optimization method                            : BFGS
 variable cell method                           : fixed basis quality
 max. number of steps                           :        100
 estimated bulk modulus                         :  500.0       GPa
 estimated <frequency>                          :  1668.       cm-1
 geom line minimiser                            : on
 with line minimiser tolerance                  :     0.4000
 total energy convergence tolerance             : 0.5000E-05   eV/atom
        max ionic |force| tolerance             : 0.1000E-01   eV/A
 max ionic |displacement| tolerance             : 0.5000E-03   A
   max |stress component| tolerance             : 0.2000E-01   GPa
 convergence tolerance window                   :          2   steps
 backup results every                           :          5   steps
 write geom trajectory file                     : on

 *******************************************************************************
  
 
                           -------------------------------
                                      Unit Cell
                           -------------------------------
        Real Lattice(A)                      Reciprocal Lattice(1/A)
   5.0084921   0.0000000  -0.0000000        1.2545064   0.0000000   0.0000000
   0.0000000   5.4647128  -0.0000000       -0.0000000   1.1497741   0.0000000
   0.0000000   0.0000000   5.4647129        0.0000000   0.0000000   1.1497741
 
                       Lattice parameters(A)       Cell Angles
                    a =    5.008492          alpha =   90.000000
                    b =    5.464713          beta  =   90.000001
                    c =    5.464713          gamma =   90.000000
 
                       Current cell volume =  149.569034       A**3
                                   density =    1.502209   AMU/A**3
                                           =    2.494477     g/cm^3
 
                           -------------------------------
                                     Cell Contents
                           -------------------------------
                         Total number of ions in cell =    8
                      Total number of species in cell =    1
                        Max number of any one species =    8
 
            xxxxxxxxxxxxxxxxxxxxxxxxxxxxxxxxxxxxxxxxxxxxxxxxxxxxxxxxxxxx
            x  Element    Atom        Fractional coordinates of atoms  x
            x            Number           u          v          w      x
            x----------------------------------------------------------x
            x  Si           1         0.000000  -0.000000  -0.000000   x 
            x  Si           2         0.000000   0.500000   0.500000   x 
            x  Si           3         0.500000   0.000000   0.500000   x 
            x  Si           4         0.500000   0.500000  -0.000000   x 
            x  Si           5         0.750000   0.250000   0.750000   x 
            x  Si           6         0.250000   0.250000   0.250000   x 
            x  Si           7         0.250000   0.750000   0.750000   x 
            x  Si           8         0.750000   0.750000   0.250000   x 
            xxxxxxxxxxxxxxxxxxxxxxxxxxxxxxxxxxxxxxxxxxxxxxxxxxxxxxxxxxxx
 
 
                         No user defined ionic velocities
 
                           -------------------------------
                                   Details of Species
                           -------------------------------
 
                               Mass of species in AMU
                                    Si   28.0849991
 
                          Electric Quadrupole Moment (Barn)
                                    Si    1.0000000 No Isotope Defined
 
                          Files used for pseudopotentials:
                                    Si D:\PROGRA~1\BIOVIA\MATERI~1.2\share\Resources\Quantum\Castep\Potentials\Si_00PBE.usp
 
                           -------------------------------
                              k-Points For BZ Sampling
                           -------------------------------
                       MP grid size for SCF calculation is  8  8  8
                            with an offset of   0.000  0.000  0.000
                       Number of kpoints used =           256
 
                           -------------------------------
                               Symmetry and Constraints
                           -------------------------------
 
                      Cell is a supercell containing 4 primitive cells
                      Maximum deviation from symmetry =  0.00000         ANG
 
                      Number of symmetry operations   =           1
         There are no ionic constraints specified or generated for this cell
                      Point group of crystal =     1: C1, 1, 1
                      Space group of crystal =   141: I4_1/amd, I 4bw 2bw -1bw
 
             Set iprint > 1 for details on symmetry rotations/translations
 
                         Centre of mass is NOT constrained
 
                         Number of cell constraints= 6
                         Cell constraints are:  0 0 0 0 0 0
 
                         External pressure/stress (GPa)
                          0.00000   0.00000   0.00000
                                    0.00000   0.00000
                                              0.00000
  
+---------------- MEMORY AND SCRATCH DISK ESTIMATES PER PROCESS --------------+
|                                                     Memory          Disk    |
| Baseline code, static data and system overhead        0.0 MB         0.0 MB |
| BLAS internal memory storage                          0.0 MB         0.0 MB |
| Model and support data                               48.8 MB        29.1 MB |
| Electronic energy minimisation requirements          43.8 MB         0.0 MB |
| Force calculation requirements                       13.3 MB         0.0 MB |
| Stress calculation requirements                      16.4 MB         0.0 MB |
|                                               ----------------------------- |
| Approx. total storage required per process           92.6 MB        29.1 MB |
|                                                                             |
| Requirements will fluctuate during execution and may exceed these estimates |
+-----------------------------------------------------------------------------+
Calculating finite basis set correction with  3 cut-off energies.
Calculating total energy with cut-off of  310.000 eV.
------------------------------------------------------------------------ <-- SCF
SCF loop      Energy                           Energy gain       Timer   <-- SCF
                                               per atom          (sec)   <-- SCF
------------------------------------------------------------------------ <-- SCF
Initial   3.98221486E+002                                          1.62  <-- SCF
      1  -7.44271299E+002                    1.42811598E+002       8.05  <-- SCF
      2  -8.55597222E+002                    1.39157405E+001      13.20  <-- SCF
      3  -8.58628928E+002                    3.78963267E-001      17.72  <-- SCF
      4  -8.58271095E+002                   -4.47291075E-002      24.26  <-- SCF
      5  -8.58075364E+002                   -2.44664445E-002      29.69  <-- SCF
      6  -8.58088741E+002                    1.67216758E-003      36.19  <-- SCF
      7  -8.58089449E+002                    8.84215526E-005      42.62  <-- SCF
      8  -8.58089676E+002                    2.84458953E-005      47.36  <-- SCF
      9  -8.58089759E+002                    1.03971776E-005      51.70  <-- SCF
     10  -8.58089803E+002                    5.39671684E-006      55.58  <-- SCF
     11  -8.58089825E+002                    2.86588011E-006      59.50  <-- SCF
     12  -8.58089838E+002                    1.55714953E-006      63.68  <-- SCF
     13  -8.58089844E+002                    7.90187596E-007      68.39  <-- SCF
     14  -8.58089848E+002                    4.29929914E-007      72.99  <-- SCF
     15  -8.58089850E+002                    2.36770018E-007      76.92  <-- SCF
     16  -8.58089851E+002                    1.25779786E-007      80.84  <-- SCF
------------------------------------------------------------------------ <-- SCF
 
Final energy =  -858.0898506083     eV
(energy not corrected for finite basis set)
 
Calculating total energy with cut-off of  315.000 eV.
------------------------------------------------------------------------ <-- SCF
SCF loop      Energy                           Energy gain       Timer   <-- SCF
                                               per atom          (sec)   <-- SCF
------------------------------------------------------------------------ <-- SCF
Initial  -8.58089851E+002                                         82.82  <-- SCF
      1  -8.58091805E+002                    2.44334619E-004      87.91  <-- SCF
      2  -8.58091808E+002                    2.82526259E-007      91.85  <-- SCF
      3  -8.58091810E+002                    2.54022760E-007      95.74  <-- SCF
      4  -8.58091810E+002                    4.35034049E-008      99.84  <-- SCF
------------------------------------------------------------------------ <-- SCF
 
Final energy =  -858.0918099215     eV
(energy not corrected for finite basis set)
 
Calculating total energy with cut-off of  320.000 eV.
------------------------------------------------------------------------ <-- SCF
SCF loop      Energy                           Energy gain       Timer   <-- SCF
                                               per atom          (sec)   <-- SCF
------------------------------------------------------------------------ <-- SCF
Initial  -8.58091810E+002                                        101.71  <-- SCF
      1  -8.58093478E+002                    2.08448342E-004     107.31  <-- SCF
      2  -8.58093479E+002                    1.80598708E-007     111.71  <-- SCF
      3  -8.58093481E+002                    1.99530344E-007     115.61  <-- SCF
      4  -8.58093481E+002                    2.86001735E-008     119.57  <-- SCF
------------------------------------------------------------------------ <-- SCF
 
Final energy =  -858.0934807856     eV
(energy not corrected for finite basis set)
 
 For future reference: finite basis dEtot/dlog(Ecut) =      -0.114005eV
 Total energy corrected for finite basis set =    -858.093484 eV
 
+---------------- MEMORY AND SCRATCH DISK ESTIMATES PER PROCESS --------------+
|                                                     Memory          Disk    |
| Model and support data                               53.0 MB        29.1 MB |
| Electronic energy minimisation requirements          43.8 MB         0.0 MB |
| Geometry minimisation requirements                   61.5 MB         0.0 MB |
|                                               ----------------------------- |
| Approx. total storage required per process          158.3 MB        29.1 MB |
|                                                                             |
| Requirements will fluctuate during execution and may exceed these estimates |
+-----------------------------------------------------------------------------+
 
 
 ************************************** Forces **************************************
 *                                                                                  *
 *                           Cartesian components (eV/A)                            *
 * -------------------------------------------------------------------------------- *
 *                         x                    y                    z              *
 *                                                                                  *
 * Si              1      0.00001             -0.00000              0.00002         *
 * Si              2      0.00000             -0.00000              0.00001         *
 * Si              3     -0.00001              0.00001             -0.00001         *
 * Si              4     -0.00001              0.00001              0.00000         *
 * Si              5      0.01633              0.00001             -0.00002         *
 * Si              6     -0.01633             -0.00001              0.00001         *
 * Si              7     -0.01632             -0.00001              0.00001         *
 * Si              8      0.01633              0.00001             -0.00002         *
 *                                                                                  *
 ************************************************************************************
 BFGS: finished iteration     0 with enthalpy= -8.58093481E+002 eV
  
 +-----------+-----------------+-----------------+------------+-----+ <-- BFGS
 | Parameter |      value      |    tolerance    |    units   | OK? | <-- BFGS
 +-----------+-----------------+-----------------+------------+-----+ <-- BFGS
 |  dE/ion   |   0.000000E+000 |   5.000000E-006 |         eV | No  | <-- BFGS
 |  |F|max   |   1.633002E-002 |   1.000000E-002 |       eV/A | No  | <-- BFGS
 |  |dR|max  |   0.000000E+000 |   5.000000E-004 |          A | No  | <-- BFGS
 +-----------+-----------------+-----------------+------------+-----+ <-- BFGS
  

================================================================================
 Starting BFGS iteration          1 ...
================================================================================
  
 +------------+-------------+-------------+-----------------+ <-- min BFGS
 |    Step    |   lambda    |   F.delta'  |    enthalpy     | <-- min BFGS
 +------------+-------------+-------------+-----------------+ <-- min BFGS
 |  previous  |    0.000000 |    0.006011 |     -858.093481 | <-- min BFGS
 +------------+-------------+-------------+-----------------+ <-- min BFGS
  

--------------------------------------------------------------------------------
 BFGS: starting iteration         1 with trial guess (lambda=  1.000000)
--------------------------------------------------------------------------------
 
                           -------------------------------
                                     Cell Contents
                           -------------------------------
 
            xxxxxxxxxxxxxxxxxxxxxxxxxxxxxxxxxxxxxxxxxxxxxxxxxxxxxxxxxxxxxxxxx
            x  Element         Atom        Fractional coordinates of atoms  x
            x                 Number           u          v          w      x
            x---------------------------------------------------------------x
            x  Si                1         0.000000  -0.000000   0.000000   x
            x  Si                2         0.000000   0.500000   0.500000   x
            x  Si                3         0.500000   0.000000   0.500000   x
            x  Si                4         0.500000   0.500000   0.000000   x
            x  Si                5         0.750011   0.250000   0.750000   x
            x  Si                6         0.249989   0.250000   0.250000   x
            x  Si                7         0.249989   0.750000   0.750000   x
            x  Si                8         0.750011   0.750000   0.250000   x
            xxxxxxxxxxxxxxxxxxxxxxxxxxxxxxxxxxxxxxxxxxxxxxxxxxxxxxxxxxxxxxxxx
 
 
------------------------------------------------------------------------ <-- SCF
SCF loop      Energy                           Energy gain       Timer   <-- SCF
                                               per atom          (sec)   <-- SCF
------------------------------------------------------------------------ <-- SCF
Initial  -8.58093271E+002                                        123.10  <-- SCF
      1  -8.58093484E+002                    2.66147017E-005     126.56  <-- SCF
      2  -8.58093484E+002                    8.45807935E-009     130.49  <-- SCF
      3  -8.58093484E+002                    3.31091214E-009     134.41  <-- SCF
      4  -8.58093484E+002                    1.29982168E-009     138.36  <-- SCF
------------------------------------------------------------------------ <-- SCF
 
Final energy =  -858.0934844653     eV
(energy not corrected for finite basis set)
 
 
 ************************************** Forces **************************************
 *                                                                                  *
 *                           Cartesian components (eV/A)                            *
 * -------------------------------------------------------------------------------- *
 *                         x                    y                    z              *
 *                                                                                  *
 * Si              1     -0.00000             -0.00001              0.00000         *
 * Si              2     -0.00000             -0.00001              0.00001         *
 * Si              3      0.00000              0.00001             -0.00000         *
 * Si              4      0.00000              0.00001             -0.00001         *
 * Si              5      0.01514              0.00001             -0.00001         *
 * Si              6     -0.01514             -0.00001              0.00001         *
 * Si              7     -0.01514             -0.00001              0.00001         *
 * Si              8      0.01514              0.00001             -0.00001         *
 *                                                                                  *
 ************************************************************************************
  
 +------------+-------------+-------------+-----------------+ <-- min BFGS
 |    Step    |   lambda    |   F.delta'  |    enthalpy     | <-- min BFGS
 +------------+-------------+-------------+-----------------+ <-- min BFGS
 |  previous  |    0.000000 |    0.006011 |     -858.093481 | <-- min BFGS
 | trial step |    1.000000 |    0.005575 |     -858.093484 | <-- min BFGS
 +------------+-------------+-------------+-----------------+ <-- min BFGS
  

--------------------------------------------------------------------------------
 BFGS: improving iteration         1 with line minimization (lambda= 13.786600)
--------------------------------------------------------------------------------
 
                           -------------------------------
                                     Cell Contents
                           -------------------------------
 
            xxxxxxxxxxxxxxxxxxxxxxxxxxxxxxxxxxxxxxxxxxxxxxxxxxxxxxxxxxxxxxxxx
            x  Element         Atom        Fractional coordinates of atoms  x
            x                 Number           u          v          w      x
            x---------------------------------------------------------------x
            x  Si                1         0.000000  -0.000000   0.000000   x
            x  Si                2         0.000000   0.500000   0.500000   x
            x  Si                3         0.500000   0.000000   0.500000   x
            x  Si                4         0.500000   0.500000   0.000000   x
            x  Si                5         0.750156   0.250000   0.750000   x
            x  Si                6         0.249844   0.250000   0.250000   x
            x  Si                7         0.249844   0.750000   0.750000   x
            x  Si                8         0.750156   0.750000   0.250000   x
            xxxxxxxxxxxxxxxxxxxxxxxxxxxxxxxxxxxxxxxxxxxxxxxxxxxxxxxxxxxxxxxxx
 
 
------------------------------------------------------------------------ <-- SCF
SCF loop      Energy                           Energy gain       Timer   <-- SCF
                                               per atom          (sec)   <-- SCF
------------------------------------------------------------------------ <-- SCF
Initial  -8.58093502E+002                                        142.21  <-- SCF
      1  -8.58093509E+002                    9.19534276E-007     147.67  <-- SCF
      2  -8.58093511E+002                    2.01054389E-007     152.01  <-- SCF
      3  -8.58093511E+002                    5.98718435E-008     156.02  <-- SCF
      4  -8.58093511E+002                    1.95762960E-008     160.15  <-- SCF
------------------------------------------------------------------------ <-- SCF
 
Final energy =  -858.0935112176     eV
(energy not corrected for finite basis set)
 
 
 ************************************** Forces **************************************
 *                                                                                  *
 *                           Cartesian components (eV/A)                            *
 * -------------------------------------------------------------------------------- *
 *                         x                    y                    z              *
 *                                                                                  *
 * Si              1      0.00000              0.00001             -0.00003         *
 * Si              2      0.00001              0.00001             -0.00001         *
 * Si              3      0.00000             -0.00002              0.00001         *
 * Si              4      0.00001             -0.00002             -0.00000         *
 * Si              5      0.00263             -0.00001              0.00002         *
 * Si              6     -0.00264              0.00002             -0.00001         *
 * Si              7     -0.00264              0.00002             -0.00002         *
 * Si              8      0.00263             -0.00001              0.00002         *
 *                                                                                  *
 ************************************************************************************
  
 +------------+-------------+-------------+-----------------+ <-- min BFGS
 |    Step    |   lambda    |   F.delta'  |    enthalpy     | <-- min BFGS
 +------------+-------------+-------------+-----------------+ <-- min BFGS
 |  previous  |    0.000000 |    0.006011 |     -858.093481 | <-- min BFGS
 | trial step |    1.000000 |    0.005575 |     -858.093484 | <-- min BFGS
 |  line step |   13.786600 |    0.000970 |     -858.093511 | <-- min BFGS
 +------------+-------------+-------------+-----------------+ <-- min BFGS
  
 BFGS: finished iteration     1 with enthalpy= -8.58093511E+002 eV
  
 +-----------+-----------------+-----------------+------------+-----+ <-- BFGS
 | Parameter |      value      |    tolerance    |    units   | OK? | <-- BFGS
 +-----------+-----------------+-----------------+------------+-----+ <-- BFGS
 |  dE/ion   |   3.803990E-006 |   5.000000E-006 |         eV | Yes | <-- BFGS
 |  |F|max   |   2.642126E-003 |   1.000000E-002 |       eV/A | Yes | <-- BFGS
 |  |dR|max  |   7.836663E-004 |   5.000000E-004 |          A | No  | <-- BFGS
 +-----------+-----------------+-----------------+------------+-----+ <-- BFGS
  

================================================================================
 Starting BFGS iteration          2 ...
================================================================================
  
 +------------+-------------+-------------+-----------------+ <-- min BFGS
 |    Step    |   lambda    |   F.delta'  |    enthalpy     | <-- min BFGS
 +------------+-------------+-------------+-----------------+ <-- min BFGS
 |  previous  |    0.000000 |    0.000970 |     -858.093511 | <-- min BFGS
 +------------+-------------+-------------+-----------------+ <-- min BFGS
  

--------------------------------------------------------------------------------
 BFGS: starting iteration         2 with trial guess (lambda=  1.000000)
--------------------------------------------------------------------------------
 
                           -------------------------------
                                     Cell Contents
                           -------------------------------
 
            xxxxxxxxxxxxxxxxxxxxxxxxxxxxxxxxxxxxxxxxxxxxxxxxxxxxxxxxxxxxxxxxx
            x  Element         Atom        Fractional coordinates of atoms  x
            x                 Number           u          v          w      x
            x---------------------------------------------------------------x
            x  Si                1         0.000000  -0.000000   0.000000   x
            x  Si                2         0.000000   0.500000   0.500000   x
            x  Si                3         0.500000   0.000000   0.500000   x
            x  Si                4         0.500000   0.500000   0.000000   x
            x  Si                5         0.750187   0.250000   0.750000   x
            x  Si                6         0.249813   0.250000   0.250000   x
            x  Si                7         0.249813   0.750000   0.750000   x
            x  Si                8         0.750187   0.750000   0.250000   x
            xxxxxxxxxxxxxxxxxxxxxxxxxxxxxxxxxxxxxxxxxxxxxxxxxxxxxxxxxxxxxxxxx
 
 
------------------------------------------------------------------------ <-- SCF
SCF loop      Energy                           Energy gain       Timer   <-- SCF
                                               per atom          (sec)   <-- SCF
------------------------------------------------------------------------ <-- SCF
Initial  -8.58093523E+002                                        163.91  <-- SCF
      1  -8.58093512E+002                   -1.39302026E-006     167.44  <-- SCF
      2  -8.58093512E+002                    4.51684982E-008     171.99  <-- SCF
      3  -8.58093512E+002                    1.65888801E-008     176.25  <-- SCF
      4  -8.58093512E+002                    4.60431707E-009     180.66  <-- SCF
------------------------------------------------------------------------ <-- SCF
 
Final energy =  -858.0935122952     eV
(energy not corrected for finite basis set)
 
 
 ************************************** Forces **************************************
 *                                                                                  *
 *                           Cartesian components (eV/A)                            *
 * -------------------------------------------------------------------------------- *
 *                         x                    y                    z              *
 *                                                                                  *
 * Si              1     -0.00001              0.00001             -0.00003         *
 * Si              2     -0.00001              0.00001             -0.00001         *
 * Si              3      0.00001             -0.00002              0.00001         *
 * Si              4      0.00002             -0.00002              0.00000         *
 * Si              5     -0.00000             -0.00001              0.00002         *
 * Si              6      0.00000              0.00002             -0.00000         *
 * Si              7     -0.00000              0.00002             -0.00001         *
 * Si              8     -0.00001             -0.00001              0.00002         *
 *                                                                                  *
 ************************************************************************************
  
 +------------+-------------+-------------+-----------------+ <-- min BFGS
 |    Step    |   lambda    |   F.delta'  |    enthalpy     | <-- min BFGS
 +------------+-------------+-------------+-----------------+ <-- min BFGS
 |  previous  |    0.000000 |    0.000970 |     -858.093511 | <-- min BFGS
 | trial step |    1.000000 | -7.895E-007 |     -858.093512 | <-- min BFGS
 +------------+-------------+-------------+-----------------+ <-- min BFGS
  
 BFGS: finished iteration     2 with enthalpy= -8.58093512E+002 eV
  
 +-----------+-----------------+-----------------+------------+-----+ <-- BFGS
 | Parameter |      value      |    tolerance    |    units   | OK? | <-- BFGS
 +-----------+-----------------+-----------------+------------+-----+ <-- BFGS
 |  dE/ion   |   1.347047E-007 |   5.000000E-006 |         eV | Yes | <-- BFGS
 |  |F|max   |   3.035707E-005 |   1.000000E-002 |       eV/A | Yes | <-- BFGS
 |  |dR|max  |   1.508185E-004 |   5.000000E-004 |          A | Yes | <-- BFGS
 +-----------+-----------------+-----------------+------------+-----+ <-- BFGS
  
 BFGS: Geometry optimization completed successfully.

================================================================================
 BFGS: Final Configuration:
================================================================================
 
                           -------------------------------
                                     Cell Contents
                           -------------------------------
 
            xxxxxxxxxxxxxxxxxxxxxxxxxxxxxxxxxxxxxxxxxxxxxxxxxxxxxxxxxxxxxxxxx
            x  Element         Atom        Fractional coordinates of atoms  x
            x                 Number           u          v          w      x
            x---------------------------------------------------------------x
            x  Si                1         0.000000  -0.000000   0.000000   x
            x  Si                2         0.000000   0.500000   0.500000   x
            x  Si                3         0.500000   0.000000   0.500000   x
            x  Si                4         0.500000   0.500000   0.000000   x
            x  Si                5         0.750187   0.250000   0.750000   x
            x  Si                6         0.249813   0.250000   0.250000   x
            x  Si                7         0.249813   0.750000   0.750000   x
            x  Si                8         0.750187   0.750000   0.250000   x
            xxxxxxxxxxxxxxxxxxxxxxxxxxxxxxxxxxxxxxxxxxxxxxxxxxxxxxxxxxxxxxxxx
 
 
 BFGS: Final Enthalpy     = -8.58093512E+002 eV
 BFGS: Final <frequency>  =     424.44907 cm-1
 
 ************************************** Forces **************************************
 *                                                                                  *
 *                           Cartesian components (eV/A)                            *
 * -------------------------------------------------------------------------------- *
 *                         x                    y                    z              *
 *                                                                                  *
 * Si              1     -0.00001              0.00001             -0.00003         *
 * Si              2     -0.00001              0.00001             -0.00001         *
 * Si              3      0.00001             -0.00002              0.00001         *
 * Si              4      0.00002             -0.00002              0.00000         *
 * Si              5     -0.00000             -0.00001              0.00002         *
 * Si              6      0.00000              0.00002             -0.00000         *
 * Si              7     -0.00000              0.00002             -0.00001         *
 * Si              8     -0.00001             -0.00001              0.00002         *
 *                                                                                  *
 ************************************************************************************
 
 ***************** Stress Tensor *****************
 *                                               *
 *          Cartesian components (GPa)           *
 * --------------------------------------------- *
 *             x             y             z     *
 *                                               *
 *  x    -13.154575     -0.000023     -0.000018  *
 *  y     -0.000023     -6.620833     -0.000001  *
 *  z     -0.000018     -0.000001     -6.620832  *
 *                                               *
 *  Pressure:    8.7987                          *
 *                                               *
 *************************************************

Writing analysis data to Si.castep_bin

Writing model to Si.check
 
 A BibTeX formatted list of references used in this run has been written to 
 Si.bib
 
Initialisation time =      0.59 s
Calculation time    =    190.63 s
Finalisation time   =      0.53 s
Total time          =    191.76 s
  
Overall parallel efficiency rating: Excellent (96%)                             
  
Data was distributed by:-
k-point (8-way); efficiency rating: Excellent (97%)                             
  
Parallel notes:
1) Calculation only took 191.4 s, so efficiency estimates may be inaccurate.    
