 Job started on host YOS-20180822FRE
 at Fri May  3 01:29:44 2019

 +-------------------------------------------------+
 |                                                 |
 |      CCC   AA    SSS  TTTTT  EEEEE  PPPP        |
 |     C     A  A  S       T    E      P   P       |
 |     C     AAAA   SS     T    EEE    PPPP        |
 |     C     A  A     S    T    E      P           |
 |      CCC  A  A  SSS     T    EEEEE  P           |
 |                                                 |
 +-------------------------------------------------+
 |                                                 |
 | Materials Studio CASTEP version 2017 R2         |
 | Ab Initio Total Energy Program                  |
 |                                                 |
 | Authors:                                        |
 | M. Segall, M. Probert, C. Pickard, P. Hasnip,   |
 | S. Clark, K. Refson, J. R. Yates, M. Payne      |
 |                                                 |
 | Contributors:                                   |
 | P. Lindan, P. Haynes, J. White, V. Milman,      |
 | N. Govind, M. Gibson, P. Tulip, V. Cocula,      |
 | B. Montanari, D. Quigley, M. Glover,            |
 | L. Bernasconi, A. Perlov, M. Plummer,           |
 | E. McNellis, J. Meyer, J. Gale, D. Jochym       |
 | J. Aarons, B. Walker, R. Gillen, D. Jones       |
 | T. Green, I. J. Bush, C. J. Armstrong,          |
 | E. J. Higgins, E. L. Brown, M. S. McFly,        |
 | J. Wilkins, B-C. Shih, P. J. P. Byrne           |
 |                                                 |
 | Copyright (c) 2000 - 2016                       |
 |                                                 |
 | Please cite                                     |
 |                                                 |
 |     "First principles methods using CASTEP"     |
 |                                                 |
 |         Zeitschrift fuer Kristallographie       |
 |           220(5-6) pp. 567-570 (2005)           |
 |                                                 |
 | S. J. Clark, M. D. Segall, C. J. Pickard,       |
 | P. J. Hasnip, M. J. Probert, K. Refson,         |
 | M. C. Payne                                     |
 |                                                 |
 |       in all publications arising from          |
 |              your use of CASTEP                 |
 |                                                 |
 +-------------------------------------------------+
 
 
 This version was compiled for i686-windows-msvc2013 on Dec 07 2016
 Code version: 7217
 Intel(R) Math Kernel Library Version 11.1.2 
 Fundamental constants values: CODATA 2010
 
License checkout of MS_castep successful
 
 
 Pseudo atomic calculation performed for Si 3s2 3p2
 
 Converged in 17 iterations to a total energy of -101.9015 eV
 
 Calculation parallelised over 8 processes.
 Data is distributed by k-point(8-way)

 ************************************ Title ************************************
 CASTEP calculation from Materials Studio

 ***************************** General Parameters ******************************
  
 output verbosity                               : normal  (1)
 write checkpoint data to                       : Si.check
 type of calculation                            : geometry optimization
 stress calculation                             : on
 density difference calculation                 : off
 electron localisation func (ELF) calculation   : off
 Hirshfeld analysis                             : off
 unlimited duration calculation
 timing information                             : on
 memory usage estimate                          : on
 write final potential to formatted file        : off
 write final density to formatted file          : off
 write BibTeX reference list                    : on
 write OTFG pseudopotential files               : on
 write electrostatic potential file             : on
 write bands file                               : on
 checkpoint writing                             : both castep_bin and check files
  
 output         length unit                     : A
 output           mass unit                     : amu
 output           time unit                     : ps
 output         charge unit                     : e
 output           spin unit                     : hbar/2
 output         energy unit                     : eV
 output          force unit                     : eV/A
 output       velocity unit                     : A/ps
 output       pressure unit                     : GPa
 output     inv_length unit                     : 1/A
 output      frequency unit                     : cm-1
 output force constant unit                     : eV/A**2
 output         volume unit                     : A**3
 output   IR intensity unit                     : (D/A)**2/amu
 output         dipole unit                     : D
 output         efield unit                     : eV/A/e
 output        entropy unit                     : J/mol/K
  
 wavefunctions paging                           : none
 random number generator seed                   : randomised (12945204)
 data distribution                              : optimal for this architecture
 optimization strategy                          : balance speed and memory

 *********************** Exchange-Correlation Parameters ***********************
  
 using functional                               : Perdew Burke Ernzerhof
 relativistic treatment                         : Koelling-Harmon
 DFT+D: Semi-empirical dispersion correction    : off

 ************************* Pseudopotential Parameters **************************
  
 pseudopotential representation                 : reciprocal space
 <beta|phi> representation                      : reciprocal space
 spin-orbit coupling                            : off

 **************************** Basis Set Parameters *****************************
  
 plane wave basis set cut-off                   :   320.0000   eV
 size of standard grid                          :     2.0000
 size of   fine   grid                          :     3.0000
 size of   fine   gmax                          :    27.4938   1/A
 largest prime factor in FFT                    :          5
 finite basis set correction                    : automatic
 number of sample energies                      :          3
           sample  spacing                      :     5.0000   eV

 **************************** Electronic Parameters ****************************
  
 number of  electrons                           :  32.00    
 net charge of system                           :  0.000    
 treating system as non-spin-polarized
 number of bands                                :         16

 ********************* Electronic Minimization Parameters **********************
  
 Method: Treating system as non-metallic,
         and number of  SD  steps               :          1
         and number of  CG  steps               :          4
  
 total energy / atom convergence tol.           : 0.5000E-06   eV
 eigen-energy convergence tolerance             : 0.2500E-06   eV
 max force / atom convergence tol.              : ignored
 convergence tolerance window                   :          3   cycles
 max. number of SCF cycles                      :        100
 periodic dipole correction                     : NONE

 ************************** Density Mixing Parameters **************************
  
 density-mixing scheme                          : Pulay
 max. length of mixing history                  :         20
 charge density mixing amplitude                : 0.5000    
 cut-off energy for mixing                      :  320.0       eV
 charge density mixing g-vector                 :  1.500       1/A

 ********************** Geometry Optimization Parameters ***********************
  
 optimization method                            : BFGS
 variable cell method                           : fixed basis quality
 max. number of steps                           :        100
 estimated bulk modulus                         :  500.0       GPa
 estimated <frequency>                          :  1668.       cm-1
 geom line minimiser                            : on
 with line minimiser tolerance                  :     0.4000
 total energy convergence tolerance             : 0.5000E-05   eV/atom
        max ionic |force| tolerance             : 0.1000E-01   eV/A
 max ionic |displacement| tolerance             : 0.5000E-03   A
   max |stress component| tolerance             : 0.2000E-01   GPa
 convergence tolerance window                   :          2   steps
 backup results every                           :          5   steps
 write geom trajectory file                     : on

 *******************************************************************************
  
 
                           -------------------------------
                                      Unit Cell
                           -------------------------------
        Real Lattice(A)                      Reciprocal Lattice(1/A)
   5.7833085   0.0000000  -0.0000000        1.0864344   0.0000000   0.0000000
   0.0000000   5.4548318   0.3284767       -0.0000000   1.1560489  -0.0696145
   0.0000000   0.3284767   5.4548318        0.0000000  -0.0696144   1.1560488
 
                       Lattice parameters(A)       Cell Angles
                    a =    5.783309          alpha =   83.107898
                    b =    5.464713          beta  =   90.000000
                    c =    5.464713          gamma =   90.000000
 
                       Current cell volume =  171.459441       A**3
                                   density =    1.310421   AMU/A**3
                                           =    2.176005     g/cm^3
 
                           -------------------------------
                                     Cell Contents
                           -------------------------------
                         Total number of ions in cell =    8
                      Total number of species in cell =    1
                        Max number of any one species =    8
 
            xxxxxxxxxxxxxxxxxxxxxxxxxxxxxxxxxxxxxxxxxxxxxxxxxxxxxxxxxxxx
            x  Element    Atom        Fractional coordinates of atoms  x
            x            Number           u          v          w      x
            x----------------------------------------------------------x
            x  Si           1         0.000000  -0.000000  -0.000000   x 
            x  Si           2         0.000000   0.500000   0.500000   x 
            x  Si           3         0.500000   0.000000   0.500000   x 
            x  Si           4         0.500000   0.500000  -0.000000   x 
            x  Si           5         0.750000   0.250000   0.750000   x 
            x  Si           6         0.250000   0.250000   0.250000   x 
            x  Si           7         0.250000   0.750000   0.750000   x 
            x  Si           8         0.750000   0.750000   0.250000   x 
            xxxxxxxxxxxxxxxxxxxxxxxxxxxxxxxxxxxxxxxxxxxxxxxxxxxxxxxxxxxx
 
 
                         No user defined ionic velocities
 
                           -------------------------------
                                   Details of Species
                           -------------------------------
 
                               Mass of species in AMU
                                    Si   28.0849991
 
                          Electric Quadrupole Moment (Barn)
                                    Si    1.0000000 No Isotope Defined
 
                          Files used for pseudopotentials:
                                    Si D:\PROGRA~1\BIOVIA\MATERI~1.2\share\Resources\Quantum\Castep\Potentials\Si_00PBE.usp
 
                           -------------------------------
                              k-Points For BZ Sampling
                           -------------------------------
                       MP grid size for SCF calculation is  8  8  8
                            with an offset of   0.000  0.000  0.000
                       Number of kpoints used =           256
 
                           -------------------------------
                               Symmetry and Constraints
                           -------------------------------
 
                      Cell is a supercell containing 4 primitive cells
                      Maximum deviation from symmetry =  0.00000         ANG
 
                      Number of symmetry operations   =           1
         There are no ionic constraints specified or generated for this cell
                      Point group of crystal =     1: C1, 1, 1
                      Space group of crystal =    74: Imma, -I 2b 2
 
             Set iprint > 1 for details on symmetry rotations/translations
 
                         Centre of mass is NOT constrained
 
                         Number of cell constraints= 6
                         Cell constraints are:  0 0 0 0 0 0
 
                         External pressure/stress (GPa)
                          0.00000   0.00000   0.00000
                                    0.00000   0.00000
                                              0.00000
  
+---------------- MEMORY AND SCRATCH DISK ESTIMATES PER PROCESS --------------+
|                                                     Memory          Disk    |
| Baseline code, static data and system overhead        0.0 MB         0.0 MB |
| BLAS internal memory storage                          0.0 MB         0.0 MB |
| Model and support data                               56.0 MB        34.9 MB |
| Electronic energy minimisation requirements          50.2 MB         0.0 MB |
| Force calculation requirements                       15.9 MB         0.0 MB |
| Stress calculation requirements                      19.7 MB         0.0 MB |
|                                               ----------------------------- |
| Approx. total storage required per process          106.2 MB        34.9 MB |
|                                                                             |
| Requirements will fluctuate during execution and may exceed these estimates |
+-----------------------------------------------------------------------------+
Calculating finite basis set correction with  3 cut-off energies.
Calculating total energy with cut-off of  310.000 eV.
------------------------------------------------------------------------ <-- SCF
SCF loop      Energy                           Energy gain       Timer   <-- SCF
                                               per atom          (sec)   <-- SCF
------------------------------------------------------------------------ <-- SCF
Initial   4.04869421E+002                                          1.95  <-- SCF
      1  -7.39343296E+002                    1.43026590E+002      10.08  <-- SCF
      2  -8.54576363E+002                    1.44041334E+001      16.38  <-- SCF
      3  -8.58172348E+002                    4.49498125E-001      21.90  <-- SCF
      4  -8.57889948E+002                   -3.53000175E-002      30.56  <-- SCF
      5  -8.57720020E+002                   -2.12409796E-002      37.47  <-- SCF
      6  -8.57732001E+002                    1.49765718E-003      45.88  <-- SCF
      7  -8.57733957E+002                    2.44494035E-004      53.29  <-- SCF
      8  -8.57734069E+002                    1.40102004E-005      60.50  <-- SCF
      9  -8.57734072E+002                    3.52382910E-007      65.38  <-- SCF
     10  -8.57734072E+002                    6.24097120E-008      70.33  <-- SCF
------------------------------------------------------------------------ <-- SCF
 
Final energy =  -857.7340723978     eV
(energy not corrected for finite basis set)
 
Calculating total energy with cut-off of  315.000 eV.
------------------------------------------------------------------------ <-- SCF
SCF loop      Energy                           Energy gain       Timer   <-- SCF
                                               per atom          (sec)   <-- SCF
------------------------------------------------------------------------ <-- SCF
Initial  -8.57734072E+002                                         72.68  <-- SCF
      1  -8.57735466E+002                    1.74204009E-004      79.14  <-- SCF
      2  -8.57735467E+002                    1.43389353E-007      84.05  <-- SCF
      3  -8.57735469E+002                    1.72583336E-007      89.01  <-- SCF
      4  -8.57735469E+002                    4.34227907E-008      93.91  <-- SCF
------------------------------------------------------------------------ <-- SCF
 
Final energy =  -857.7354689102     eV
(energy not corrected for finite basis set)
 
Calculating total energy with cut-off of  320.000 eV.
------------------------------------------------------------------------ <-- SCF
SCF loop      Energy                           Energy gain       Timer   <-- SCF
                                               per atom          (sec)   <-- SCF
------------------------------------------------------------------------ <-- SCF
Initial  -8.57735469E+002                                         96.27  <-- SCF
      1  -8.57736700E+002                    1.53893587E-004     102.70  <-- SCF
      2  -8.57736701E+002                    1.08441101E-007     107.69  <-- SCF
      3  -8.57736702E+002                    1.52724002E-007     112.65  <-- SCF
      4  -8.57736702E+002                    3.43217308E-008     117.50  <-- SCF
------------------------------------------------------------------------ <-- SCF
 
Final energy =  -857.7367024240     eV
(energy not corrected for finite basis set)
 
 For future reference: finite basis dEtot/dlog(Ecut) =      -0.082872eV
 Total energy corrected for finite basis set =    -857.736702 eV
 
+---------------- MEMORY AND SCRATCH DISK ESTIMATES PER PROCESS --------------+
|                                                     Memory          Disk    |
| Model and support data                               59.2 MB        34.9 MB |
| Electronic energy minimisation requirements          50.2 MB         0.0 MB |
| Geometry minimisation requirements                   70.5 MB         0.0 MB |
|                                               ----------------------------- |
| Approx. total storage required per process          179.9 MB        34.9 MB |
|                                                                             |
| Requirements will fluctuate during execution and may exceed these estimates |
+-----------------------------------------------------------------------------+
 
 
 ************************************** Forces **************************************
 *                                                                                  *
 *                           Cartesian components (eV/A)                            *
 * -------------------------------------------------------------------------------- *
 *                         x                    y                    z              *
 *                                                                                  *
 * Si              1      0.81021             -0.00000              0.00000         *
 * Si              2      0.81022             -0.00000             -0.00000         *
 * Si              3      0.81022              0.00000             -0.00000         *
 * Si              4      0.81021              0.00000              0.00000         *
 * Si              5     -0.81021              0.00000              0.00001         *
 * Si              6     -0.81022              0.00000             -0.00000         *
 * Si              7     -0.81021             -0.00000              0.00000         *
 * Si              8     -0.81021             -0.00000             -0.00001         *
 *                                                                                  *
 ************************************************************************************
 BFGS: finished iteration     0 with enthalpy= -8.57736702E+002 eV
  
 +-----------+-----------------+-----------------+------------+-----+ <-- BFGS
 | Parameter |      value      |    tolerance    |    units   | OK? | <-- BFGS
 +-----------+-----------------+-----------------+------------+-----+ <-- BFGS
 |  dE/ion   |   0.000000E+000 |   5.000000E-006 |         eV | No  | <-- BFGS
 |  |F|max   |   8.102190E-001 |   1.000000E-002 |       eV/A | No  | <-- BFGS
 |  |dR|max  |   0.000000E+000 |   5.000000E-004 |          A | No  | <-- BFGS
 +-----------+-----------------+-----------------+------------+-----+ <-- BFGS
  

================================================================================
 Starting BFGS iteration          1 ...
================================================================================
  
 +------------+-------------+-------------+-----------------+ <-- min BFGS
 |    Step    |   lambda    |   F.delta'  |    enthalpy     | <-- min BFGS
 +------------+-------------+-------------+-----------------+ <-- min BFGS
 |  previous  |    0.000000 |    0.487047 |     -857.736702 | <-- min BFGS
 +------------+-------------+-------------+-----------------+ <-- min BFGS
  

--------------------------------------------------------------------------------
 BFGS: starting iteration         1 with trial guess (lambda=  1.000000)
--------------------------------------------------------------------------------
 
                           -------------------------------
                                     Cell Contents
                           -------------------------------
 
            xxxxxxxxxxxxxxxxxxxxxxxxxxxxxxxxxxxxxxxxxxxxxxxxxxxxxxxxxxxxxxxxx
            x  Element         Atom        Fractional coordinates of atoms  x
            x                 Number           u          v          w      x
            x---------------------------------------------------------------x
            x  Si                1         0.000488  -0.000000  -0.000000   x
            x  Si                2         0.000488   0.500000   0.500000   x
            x  Si                3         0.500488   0.000000   0.500000   x
            x  Si                4         0.500488   0.500000  -0.000000   x
            x  Si                5         0.749512   0.250000   0.750000   x
            x  Si                6         0.249512   0.250000   0.250000   x
            x  Si                7         0.249512   0.750000   0.750000   x
            x  Si                8         0.749512   0.750000   0.250000   x
            xxxxxxxxxxxxxxxxxxxxxxxxxxxxxxxxxxxxxxxxxxxxxxxxxxxxxxxxxxxxxxxxx
 
 
------------------------------------------------------------------------ <-- SCF
SCF loop      Energy                           Energy gain       Timer   <-- SCF
                                               per atom          (sec)   <-- SCF
------------------------------------------------------------------------ <-- SCF
Initial  -8.57671254E+002                                        121.96  <-- SCF
      1  -8.57754174E+002                    1.03649910E-002     128.25  <-- SCF
      2  -8.57754225E+002                    6.43021416E-006     137.05  <-- SCF
      3  -8.57754227E+002                    2.10134156E-007     142.01  <-- SCF
      4  -8.57754229E+002                    2.37192460E-007     146.87  <-- SCF
------------------------------------------------------------------------ <-- SCF
 
Final energy =  -857.7542290720     eV
(energy not corrected for finite basis set)
 
 
 ************************************** Forces **************************************
 *                                                                                  *
 *                           Cartesian components (eV/A)                            *
 * -------------------------------------------------------------------------------- *
 *                         x                    y                    z              *
 *                                                                                  *
 * Si              1      0.74364              0.00000             -0.00000         *
 * Si              2      0.74365              0.00000             -0.00000         *
 * Si              3      0.74365              0.00000              0.00000         *
 * Si              4      0.74364              0.00000             -0.00000         *
 * Si              5     -0.74365              0.00000              0.00000         *
 * Si              6     -0.74365             -0.00000             -0.00000         *
 * Si              7     -0.74364             -0.00000              0.00000         *
 * Si              8     -0.74365             -0.00000             -0.00000         *
 *                                                                                  *
 ************************************************************************************
  
 +------------+-------------+-------------+-----------------+ <-- min BFGS
 |    Step    |   lambda    |   F.delta'  |    enthalpy     | <-- min BFGS
 +------------+-------------+-------------+-----------------+ <-- min BFGS
 |  previous  |    0.000000 |    0.487047 |     -857.736702 | <-- min BFGS
 | trial step |    1.000000 |    0.447030 |     -857.754229 | <-- min BFGS
 +------------+-------------+-------------+-----------------+ <-- min BFGS
  

--------------------------------------------------------------------------------
 BFGS: improving iteration         1 with line minimization (lambda= 12.171036)
--------------------------------------------------------------------------------
 
                           -------------------------------
                                     Cell Contents
                           -------------------------------
 
            xxxxxxxxxxxxxxxxxxxxxxxxxxxxxxxxxxxxxxxxxxxxxxxxxxxxxxxxxxxxxxxxx
            x  Element         Atom        Fractional coordinates of atoms  x
            x                 Number           u          v          w      x
            x---------------------------------------------------------------x
            x  Si                1         0.005935  -0.000000  -0.000000   x
            x  Si                2         0.005935   0.500000   0.500000   x
            x  Si                3         0.505935   0.000000   0.500000   x
            x  Si                4         0.505935   0.500000  -0.000000   x
            x  Si                5         0.744065   0.250000   0.750000   x
            x  Si                6         0.244065   0.250000   0.250000   x
            x  Si                7         0.244065   0.750000   0.750000   x
            x  Si                8         0.744065   0.750000   0.250000   x
            xxxxxxxxxxxxxxxxxxxxxxxxxxxxxxxxxxxxxxxxxxxxxxxxxxxxxxxxxxxxxxxxx
 
 
------------------------------------------------------------------------ <-- SCF
SCF loop      Energy                           Energy gain       Timer   <-- SCF
                                               per atom          (sec)   <-- SCF
------------------------------------------------------------------------ <-- SCF
Initial  -8.57164590E+002                                        151.34  <-- SCF
      1  -8.57836983E+002                    8.40491328E-002     157.69  <-- SCF
      2  -8.57843319E+002                    7.92006448E-004     166.48  <-- SCF
      3  -8.57843498E+002                    2.24118452E-005     174.47  <-- SCF
      4  -8.57843709E+002                    2.63759340E-005     181.44  <-- SCF
      5  -8.57843711E+002                    2.01419238E-007     187.45  <-- SCF
      6  -8.57843712E+002                    1.60409340E-007     192.40  <-- SCF
------------------------------------------------------------------------ <-- SCF
 
Final energy =  -857.8437122200     eV
(energy not corrected for finite basis set)
 
 
 ************************************** Forces **************************************
 *                                                                                  *
 *                           Cartesian components (eV/A)                            *
 * -------------------------------------------------------------------------------- *
 *                         x                    y                    z              *
 *                                                                                  *
 * Si              1     -0.03534              0.00000             -0.00000         *
 * Si              2     -0.03534              0.00000              0.00000         *
 * Si              3     -0.03534              0.00000              0.00000         *
 * Si              4     -0.03534             -0.00000             -0.00000         *
 * Si              5      0.03534             -0.00000             -0.00000         *
 * Si              6      0.03534             -0.00000              0.00000         *
 * Si              7      0.03534              0.00000             -0.00000         *
 * Si              8      0.03534             -0.00000              0.00000         *
 *                                                                                  *
 ************************************************************************************
  
 +------------+-------------+-------------+-----------------+ <-- min BFGS
 |    Step    |   lambda    |   F.delta'  |    enthalpy     | <-- min BFGS
 +------------+-------------+-------------+-----------------+ <-- min BFGS
 |  previous  |    0.000000 |    0.487047 |     -857.736702 | <-- min BFGS
 | trial step |    1.000000 |    0.447030 |     -857.754229 | <-- min BFGS
 |  line step |   12.171036 |   -0.021245 |     -857.843712 | <-- min BFGS
 +------------+-------------+-------------+-----------------+ <-- min BFGS
  
 BFGS: finished iteration     1 with enthalpy= -8.57843712E+002 eV
  
 +-----------+-----------------+-----------------+------------+-----+ <-- BFGS
 | Parameter |      value      |    tolerance    |    units   | OK? | <-- BFGS
 +-----------+-----------------+-----------------+------------+-----+ <-- BFGS
 |  dE/ion   |   1.337622E-002 |   5.000000E-006 |         eV | No  | <-- BFGS
 |  |F|max   |   3.534198E-002 |   1.000000E-002 |       eV/A | No  | <-- BFGS
 |  |dR|max  |   3.432552E-002 |   5.000000E-004 |          A | No  | <-- BFGS
 +-----------+-----------------+-----------------+------------+-----+ <-- BFGS
  

================================================================================
 Starting BFGS iteration          2 ...
================================================================================
  
 +------------+-------------+-------------+-----------------+ <-- min BFGS
 |    Step    |   lambda    |   F.delta'  |    enthalpy     | <-- min BFGS
 +------------+-------------+-------------+-----------------+ <-- min BFGS
 |  previous  |    0.000000 |    0.021245 |     -857.843712 | <-- min BFGS
 +------------+-------------+-------------+-----------------+ <-- min BFGS
  

--------------------------------------------------------------------------------
 BFGS: starting iteration         2 with trial guess (lambda=  1.000000)
--------------------------------------------------------------------------------
 
                           -------------------------------
                                     Cell Contents
                           -------------------------------
 
            xxxxxxxxxxxxxxxxxxxxxxxxxxxxxxxxxxxxxxxxxxxxxxxxxxxxxxxxxxxxxxxxx
            x  Element         Atom        Fractional coordinates of atoms  x
            x                 Number           u          v          w      x
            x---------------------------------------------------------------x
            x  Si                1         0.005687  -0.000000  -0.000000   x
            x  Si                2         0.005687   0.500000   0.500000   x
            x  Si                3         0.505687   0.000000   0.500000   x
            x  Si                4         0.505687   0.500000  -0.000000   x
            x  Si                5         0.744313   0.250000   0.750000   x
            x  Si                6         0.244313   0.250000   0.250000   x
            x  Si                7         0.244313   0.750000   0.750000   x
            x  Si                8         0.744313   0.750000   0.250000   x
            xxxxxxxxxxxxxxxxxxxxxxxxxxxxxxxxxxxxxxxxxxxxxxxxxxxxxxxxxxxxxxxxx
 
 
------------------------------------------------------------------------ <-- SCF
SCF loop      Energy                           Energy gain       Timer   <-- SCF
                                               per atom          (sec)   <-- SCF
------------------------------------------------------------------------ <-- SCF
Initial  -8.57874502E+002                                        196.87  <-- SCF
      1  -8.57843912E+002                   -3.82373089E-003     203.30  <-- SCF
      2  -8.57843924E+002                    1.45527588E-006     209.81  <-- SCF
      3  -8.57843925E+002                    1.25017244E-007     214.70  <-- SCF
      4  -8.57843925E+002                    6.76218202E-008     219.62  <-- SCF
------------------------------------------------------------------------ <-- SCF
 
Final energy =  -857.8439251382     eV
(energy not corrected for finite basis set)
 
 
 ************************************** Forces **************************************
 *                                                                                  *
 *                           Cartesian components (eV/A)                            *
 * -------------------------------------------------------------------------------- *
 *                         x                    y                    z              *
 *                                                                                  *
 * Si              1     -0.00211              0.00000             -0.00000         *
 * Si              2     -0.00212              0.00000              0.00000         *
 * Si              3     -0.00211              0.00000              0.00000         *
 * Si              4     -0.00211             -0.00000              0.00000         *
 * Si              5      0.00211             -0.00000             -0.00000         *
 * Si              6      0.00211             -0.00000              0.00000         *
 * Si              7      0.00211              0.00000             -0.00000         *
 * Si              8      0.00211             -0.00000              0.00000         *
 *                                                                                  *
 ************************************************************************************
  
 +------------+-------------+-------------+-----------------+ <-- min BFGS
 |    Step    |   lambda    |   F.delta'  |    enthalpy     | <-- min BFGS
 +------------+-------------+-------------+-----------------+ <-- min BFGS
 |  previous  |    0.000000 |    0.021245 |     -857.843712 | <-- min BFGS
 | trial step |    1.000000 |    0.001271 |     -857.843925 | <-- min BFGS
 +------------+-------------+-------------+-----------------+ <-- min BFGS
  
 BFGS: finished iteration     2 with enthalpy= -8.57843925E+002 eV
  
 +-----------+-----------------+-----------------+------------+-----+ <-- BFGS
 | Parameter |      value      |    tolerance    |    units   | OK? | <-- BFGS
 +-----------+-----------------+-----------------+------------+-----+ <-- BFGS
 |  dE/ion   |   2.661477E-005 |   5.000000E-006 |         eV | No  | <-- BFGS
 |  |F|max   |   2.115200E-003 |   1.000000E-002 |       eV/A | Yes | <-- BFGS
 |  |dR|max  |   1.434691E-003 |   5.000000E-004 |          A | No  | <-- BFGS
 +-----------+-----------------+-----------------+------------+-----+ <-- BFGS
  

================================================================================
 Starting BFGS iteration          3 ...
================================================================================
  
 +------------+-------------+-------------+-----------------+ <-- min BFGS
 |    Step    |   lambda    |   F.delta'  |    enthalpy     | <-- min BFGS
 +------------+-------------+-------------+-----------------+ <-- min BFGS
 |  previous  |    0.000000 |    0.001271 |     -857.843925 | <-- min BFGS
 +------------+-------------+-------------+-----------------+ <-- min BFGS
  

--------------------------------------------------------------------------------
 BFGS: starting iteration         3 with trial guess (lambda=  1.000000)
--------------------------------------------------------------------------------
 
                           -------------------------------
                                     Cell Contents
                           -------------------------------
 
            xxxxxxxxxxxxxxxxxxxxxxxxxxxxxxxxxxxxxxxxxxxxxxxxxxxxxxxxxxxxxxxxx
            x  Element         Atom        Fractional coordinates of atoms  x
            x                 Number           u          v          w      x
            x---------------------------------------------------------------x
            x  Si                1         0.005671  -0.000000  -0.000000   x
            x  Si                2         0.005671   0.500000   0.500000   x
            x  Si                3         0.505671   0.000000   0.500000   x
            x  Si                4         0.505671   0.500000  -0.000000   x
            x  Si                5         0.744329   0.250000   0.750000   x
            x  Si                6         0.244329   0.250000   0.250000   x
            x  Si                7         0.244329   0.750000   0.750000   x
            x  Si                8         0.744329   0.750000   0.250000   x
            xxxxxxxxxxxxxxxxxxxxxxxxxxxxxxxxxxxxxxxxxxxxxxxxxxxxxxxxxxxxxxxxx
 
 
------------------------------------------------------------------------ <-- SCF
SCF loop      Energy                           Energy gain       Timer   <-- SCF
                                               per atom          (sec)   <-- SCF
------------------------------------------------------------------------ <-- SCF
Initial  -8.57846721E+002                                        224.13  <-- SCF
      1  -8.57843925E+002                   -3.49455736E-004     228.51  <-- SCF
      2  -8.57843925E+002                    4.03711227E-008     233.49  <-- SCF
      3  -8.57843925E+002                    1.51699557E-008     238.39  <-- SCF
      4  -8.57843926E+002                    6.44905530E-009     243.35  <-- SCF
------------------------------------------------------------------------ <-- SCF
 
Final energy =  -857.8439255019     eV
(energy not corrected for finite basis set)
 
 
 ************************************** Forces **************************************
 *                                                                                  *
 *                           Cartesian components (eV/A)                            *
 * -------------------------------------------------------------------------------- *
 *                         x                    y                    z              *
 *                                                                                  *
 * Si              1      0.00113              0.00000             -0.00000         *
 * Si              2      0.00113              0.00000              0.00000         *
 * Si              3      0.00113              0.00000              0.00000         *
 * Si              4      0.00113             -0.00000              0.00000         *
 * Si              5     -0.00113             -0.00000             -0.00000         *
 * Si              6     -0.00113             -0.00000              0.00000         *
 * Si              7     -0.00113              0.00000             -0.00000         *
 * Si              8     -0.00113             -0.00000              0.00000         *
 *                                                                                  *
 ************************************************************************************
  
 +------------+-------------+-------------+-----------------+ <-- min BFGS
 |    Step    |   lambda    |   F.delta'  |    enthalpy     | <-- min BFGS
 +------------+-------------+-------------+-----------------+ <-- min BFGS
 |  previous  |    0.000000 |    0.001271 |     -857.843925 | <-- min BFGS
 | trial step |    1.000000 |   -0.000681 |     -857.843926 | <-- min BFGS
 +------------+-------------+-------------+-----------------+ <-- min BFGS
  
 BFGS: finished iteration     3 with enthalpy= -8.57843926E+002 eV
  
 +-----------+-----------------+-----------------+------------+-----+ <-- BFGS
 | Parameter |      value      |    tolerance    |    units   | OK? | <-- BFGS
 +-----------+-----------------+-----------------+------------+-----+ <-- BFGS
 |  dE/ion   |   4.546236E-008 |   5.000000E-006 |         eV | Yes | <-- BFGS
 |  |F|max   |   1.133440E-003 |   1.000000E-002 |       eV/A | Yes | <-- BFGS
 |  |dR|max  |   9.127557E-005 |   5.000000E-004 |          A | Yes | <-- BFGS
 +-----------+-----------------+-----------------+------------+-----+ <-- BFGS
  
 BFGS: Geometry optimization completed successfully.

================================================================================
 BFGS: Final Configuration:
================================================================================
 
                           -------------------------------
                                     Cell Contents
                           -------------------------------
 
            xxxxxxxxxxxxxxxxxxxxxxxxxxxxxxxxxxxxxxxxxxxxxxxxxxxxxxxxxxxxxxxxx
            x  Element         Atom        Fractional coordinates of atoms  x
            x                 Number           u          v          w      x
            x---------------------------------------------------------------x
            x  Si                1         0.005671  -0.000000  -0.000000   x
            x  Si                2         0.005671   0.500000   0.500000   x
            x  Si                3         0.505671   0.000000   0.500000   x
            x  Si                4         0.505671   0.500000  -0.000000   x
            x  Si                5         0.744329   0.250000   0.750000   x
            x  Si                6         0.244329   0.250000   0.250000   x
            x  Si                7         0.244329   0.750000   0.750000   x
            x  Si                8         0.744329   0.750000   0.250000   x
            xxxxxxxxxxxxxxxxxxxxxxxxxxxxxxxxxxxxxxxxxxxxxxxxxxxxxxxxxxxxxxxxx
 
 
 BFGS: Final Enthalpy     = -8.57843926E+002 eV
 BFGS: Final <frequency>  =     493.87371 cm-1
 
 ************************************** Forces **************************************
 *                                                                                  *
 *                           Cartesian components (eV/A)                            *
 * -------------------------------------------------------------------------------- *
 *                         x                    y                    z              *
 *                                                                                  *
 * Si              1      0.00113              0.00000             -0.00000         *
 * Si              2      0.00113              0.00000              0.00000         *
 * Si              3      0.00113              0.00000              0.00000         *
 * Si              4      0.00113             -0.00000              0.00000         *
 * Si              5     -0.00113             -0.00000             -0.00000         *
 * Si              6     -0.00113             -0.00000              0.00000         *
 * Si              7     -0.00113              0.00000             -0.00000         *
 * Si              8     -0.00113             -0.00000              0.00000         *
 *                                                                                  *
 ************************************************************************************
 
 ***************** Stress Tensor *****************
 *                                               *
 *          Cartesian components (GPa)           *
 * --------------------------------------------- *
 *             x             y             z     *
 *                                               *
 *  x      8.312224      0.000001      0.000000  *
 *  y      0.000001      1.443045      8.911208  *
 *  z      0.000000      8.911208      1.443046  *
 *                                               *
 *  Pressure:   -3.7328                          *
 *                                               *
 *************************************************

Writing analysis data to Si.castep_bin

Writing model to Si.check
 
 A BibTeX formatted list of references used in this run has been written to 
 Si.bib
 
Initialisation time =      0.69 s
Calculation time    =    256.28 s
Finalisation time   =      0.59 s
Total time          =    257.56 s
  
Overall parallel efficiency rating: Excellent (99%)                             
  
Data was distributed by:-
k-point (8-way); efficiency rating: Excellent (99%)                             
  
Parallel notes:
1) Calculation only took 257.1 s, so efficiency estimates may be inaccurate.    
