 Job started on host YOS-20180822FRE
 at Fri May  3 00:42:45 2019

 +-------------------------------------------------+
 |                                                 |
 |      CCC   AA    SSS  TTTTT  EEEEE  PPPP        |
 |     C     A  A  S       T    E      P   P       |
 |     C     AAAA   SS     T    EEE    PPPP        |
 |     C     A  A     S    T    E      P           |
 |      CCC  A  A  SSS     T    EEEEE  P           |
 |                                                 |
 +-------------------------------------------------+
 |                                                 |
 | Materials Studio CASTEP version 2017 R2         |
 | Ab Initio Total Energy Program                  |
 |                                                 |
 | Authors:                                        |
 | M. Segall, M. Probert, C. Pickard, P. Hasnip,   |
 | S. Clark, K. Refson, J. R. Yates, M. Payne      |
 |                                                 |
 | Contributors:                                   |
 | P. Lindan, P. Haynes, J. White, V. Milman,      |
 | N. Govind, M. Gibson, P. Tulip, V. Cocula,      |
 | B. Montanari, D. Quigley, M. Glover,            |
 | L. Bernasconi, A. Perlov, M. Plummer,           |
 | E. McNellis, J. Meyer, J. Gale, D. Jochym       |
 | J. Aarons, B. Walker, R. Gillen, D. Jones       |
 | T. Green, I. J. Bush, C. J. Armstrong,          |
 | E. J. Higgins, E. L. Brown, M. S. McFly,        |
 | J. Wilkins, B-C. Shih, P. J. P. Byrne           |
 |                                                 |
 | Copyright (c) 2000 - 2016                       |
 |                                                 |
 | Please cite                                     |
 |                                                 |
 |     "First principles methods using CASTEP"     |
 |                                                 |
 |         Zeitschrift fuer Kristallographie       |
 |           220(5-6) pp. 567-570 (2005)           |
 |                                                 |
 | S. J. Clark, M. D. Segall, C. J. Pickard,       |
 | P. J. Hasnip, M. J. Probert, K. Refson,         |
 | M. C. Payne                                     |
 |                                                 |
 |       in all publications arising from          |
 |              your use of CASTEP                 |
 |                                                 |
 +-------------------------------------------------+
 
 
 This version was compiled for i686-windows-msvc2013 on Dec 07 2016
 Code version: 7217
 Intel(R) Math Kernel Library Version 11.1.2 
 Fundamental constants values: CODATA 2010
 
License checkout of MS_castep successful
 
 
 Pseudo atomic calculation performed for Si 3s2 3p2
 
 Converged in 17 iterations to a total energy of -101.9015 eV
 
 Calculation parallelised over 8 processes.
 Data is distributed by k-point(8-way)

 ************************************ Title ************************************
 CASTEP calculation from Materials Studio

 ***************************** General Parameters ******************************
  
 output verbosity                               : normal  (1)
 write checkpoint data to                       : Si.check
 type of calculation                            : geometry optimization
 stress calculation                             : on
 density difference calculation                 : off
 electron localisation func (ELF) calculation   : off
 Hirshfeld analysis                             : off
 unlimited duration calculation
 timing information                             : on
 memory usage estimate                          : on
 write final potential to formatted file        : off
 write final density to formatted file          : off
 write BibTeX reference list                    : on
 write OTFG pseudopotential files               : on
 write electrostatic potential file             : on
 write bands file                               : on
 checkpoint writing                             : both castep_bin and check files
  
 output         length unit                     : A
 output           mass unit                     : amu
 output           time unit                     : ps
 output         charge unit                     : e
 output           spin unit                     : hbar/2
 output         energy unit                     : eV
 output          force unit                     : eV/A
 output       velocity unit                     : A/ps
 output       pressure unit                     : GPa
 output     inv_length unit                     : 1/A
 output      frequency unit                     : cm-1
 output force constant unit                     : eV/A**2
 output         volume unit                     : A**3
 output   IR intensity unit                     : (D/A)**2/amu
 output         dipole unit                     : D
 output         efield unit                     : eV/A/e
 output        entropy unit                     : J/mol/K
  
 wavefunctions paging                           : none
 random number generator seed                   : randomised (4246369)
 data distribution                              : optimal for this architecture
 optimization strategy                          : balance speed and memory

 *********************** Exchange-Correlation Parameters ***********************
  
 using functional                               : Perdew Burke Ernzerhof
 relativistic treatment                         : Koelling-Harmon
 DFT+D: Semi-empirical dispersion correction    : off

 ************************* Pseudopotential Parameters **************************
  
 pseudopotential representation                 : reciprocal space
 <beta|phi> representation                      : reciprocal space
 spin-orbit coupling                            : off

 **************************** Basis Set Parameters *****************************
  
 plane wave basis set cut-off                   :   320.0000   eV
 size of standard grid                          :     2.0000
 size of   fine   grid                          :     3.0000
 size of   fine   gmax                          :    27.4938   1/A
 largest prime factor in FFT                    :          5
 finite basis set correction                    : automatic
 number of sample energies                      :          3
           sample  spacing                      :     5.0000   eV

 **************************** Electronic Parameters ****************************
  
 number of  electrons                           :  32.00    
 net charge of system                           :  0.000    
 treating system as non-spin-polarized
 number of bands                                :         16

 ********************* Electronic Minimization Parameters **********************
  
 Method: Treating system as non-metallic,
         and number of  SD  steps               :          1
         and number of  CG  steps               :          4
  
 total energy / atom convergence tol.           : 0.5000E-06   eV
 eigen-energy convergence tolerance             : 0.2500E-06   eV
 max force / atom convergence tol.              : ignored
 convergence tolerance window                   :          3   cycles
 max. number of SCF cycles                      :        100
 periodic dipole correction                     : NONE

 ************************** Density Mixing Parameters **************************
  
 density-mixing scheme                          : Pulay
 max. length of mixing history                  :         20
 charge density mixing amplitude                : 0.5000    
 cut-off energy for mixing                      :  320.0       eV
 charge density mixing g-vector                 :  1.500       1/A

 ********************** Geometry Optimization Parameters ***********************
  
 optimization method                            : BFGS
 variable cell method                           : fixed basis quality
 max. number of steps                           :        100
 estimated bulk modulus                         :  500.0       GPa
 estimated <frequency>                          :  1668.       cm-1
 geom line minimiser                            : on
 with line minimiser tolerance                  :     0.4000
 total energy convergence tolerance             : 0.5000E-05   eV/atom
        max ionic |force| tolerance             : 0.1000E-01   eV/A
 max ionic |displacement| tolerance             : 0.5000E-03   A
   max |stress component| tolerance             : 0.2000E-01   GPa
 convergence tolerance window                   :          2   steps
 backup results every                           :          5   steps
 write geom trajectory file                     : on

 *******************************************************************************
  
 
                           -------------------------------
                                      Unit Cell
                           -------------------------------
        Real Lattice(A)                      Reciprocal Lattice(1/A)
   5.1263551   0.0000000  -0.0000000        1.2256633   0.0000000   0.0000000
   0.0000000   5.1263550  -0.0000000       -0.0000000   1.2256633   0.0000000
   0.0000000   0.0000000   5.4647129        0.0000000   0.0000000   1.1497741
 
                       Lattice parameters(A)       Cell Angles
                    a =    5.126355          alpha =   90.000000
                    b =    5.126355          beta  =   90.000001
                    c =    5.464713          gamma =   90.000000
 
                       Current cell volume =  143.610012       A**3
                                   density =    1.564543   AMU/A**3
                                           =    2.597984     g/cm^3
 
                           -------------------------------
                                     Cell Contents
                           -------------------------------
                         Total number of ions in cell =    8
                      Total number of species in cell =    1
                        Max number of any one species =    8
 
            xxxxxxxxxxxxxxxxxxxxxxxxxxxxxxxxxxxxxxxxxxxxxxxxxxxxxxxxxxxx
            x  Element    Atom        Fractional coordinates of atoms  x
            x            Number           u          v          w      x
            x----------------------------------------------------------x
            x  Si           1         0.000000  -0.000000  -0.000000   x 
            x  Si           2         0.000000   0.500000   0.500000   x 
            x  Si           3         0.500000   0.000000   0.500000   x 
            x  Si           4         0.500000   0.500000  -0.000000   x 
            x  Si           5         0.750000   0.250000   0.750000   x 
            x  Si           6         0.250000   0.250000   0.250000   x 
            x  Si           7         0.250000   0.750000   0.750000   x 
            x  Si           8         0.750000   0.750000   0.250000   x 
            xxxxxxxxxxxxxxxxxxxxxxxxxxxxxxxxxxxxxxxxxxxxxxxxxxxxxxxxxxxx
 
 
                         No user defined ionic velocities
 
                           -------------------------------
                                   Details of Species
                           -------------------------------
 
                               Mass of species in AMU
                                    Si   28.0849991
 
                          Electric Quadrupole Moment (Barn)
                                    Si    1.0000000 No Isotope Defined
 
                          Files used for pseudopotentials:
                                    Si D:\PROGRA~1\BIOVIA\MATERI~1.2\share\Resources\Quantum\Castep\Potentials\Si_00PBE.usp
 
                           -------------------------------
                              k-Points For BZ Sampling
                           -------------------------------
                       MP grid size for SCF calculation is  8  8  8
                            with an offset of   0.000  0.000  0.000
                       Number of kpoints used =           256
 
                           -------------------------------
                               Symmetry and Constraints
                           -------------------------------
 
                      Cell is a supercell containing 4 primitive cells
                      Maximum deviation from symmetry =  0.00000         ANG
 
                      Number of symmetry operations   =           1
         There are no ionic constraints specified or generated for this cell
                      Point group of crystal =     1: C1, 1, 1
                      Space group of crystal =   141: I4_1/amd, I 4bw 2bw -1bw
 
             Set iprint > 1 for details on symmetry rotations/translations
 
                         Centre of mass is NOT constrained
 
                         Number of cell constraints= 6
                         Cell constraints are:  0 0 0 0 0 0
 
                         External pressure/stress (GPa)
                          0.00000   0.00000   0.00000
                                    0.00000   0.00000
                                              0.00000
  
+---------------- MEMORY AND SCRATCH DISK ESTIMATES PER PROCESS --------------+
|                                                     Memory          Disk    |
| Baseline code, static data and system overhead        0.0 MB         0.0 MB |
| BLAS internal memory storage                          0.0 MB         0.0 MB |
| Model and support data                               46.8 MB        27.3 MB |
| Electronic energy minimisation requirements          42.0 MB         0.0 MB |
| Force calculation requirements                       12.4 MB         0.0 MB |
| Stress calculation requirements                      15.4 MB         0.0 MB |
|                                               ----------------------------- |
| Approx. total storage required per process           88.8 MB        27.3 MB |
|                                                                             |
| Requirements will fluctuate during execution and may exceed these estimates |
+-----------------------------------------------------------------------------+
Calculating finite basis set correction with  3 cut-off energies.
Calculating total energy with cut-off of  310.000 eV.
------------------------------------------------------------------------ <-- SCF
SCF loop      Energy                           Energy gain       Timer   <-- SCF
                                               per atom          (sec)   <-- SCF
------------------------------------------------------------------------ <-- SCF
Initial   3.95811202E+002                                          1.59  <-- SCF
      1  -7.45180129E+002                    1.42623916E+002       7.78  <-- SCF
      2  -8.55380992E+002                    1.37751079E+001      12.68  <-- SCF
      3  -8.58345848E+002                    3.70607032E-001      16.85  <-- SCF
      4  -8.57922026E+002                   -5.29777534E-002      22.85  <-- SCF
      5  -8.57706498E+002                   -2.69410660E-002      28.16  <-- SCF
      6  -8.57719446E+002                    1.61856436E-003      34.41  <-- SCF
      7  -8.57719758E+002                    3.90233770E-005      40.40  <-- SCF
      8  -8.57719806E+002                    5.90383115E-006      44.94  <-- SCF
      9  -8.57719806E+002                    3.16307061E-008      48.61  <-- SCF
     10  -8.57719806E+002                    2.39650536E-008      52.35  <-- SCF
------------------------------------------------------------------------ <-- SCF
 
Final energy =  -857.7198060653     eV
(energy not corrected for finite basis set)
 
Calculating total energy with cut-off of  315.000 eV.
------------------------------------------------------------------------ <-- SCF
SCF loop      Energy                           Energy gain       Timer   <-- SCF
                                               per atom          (sec)   <-- SCF
------------------------------------------------------------------------ <-- SCF
Initial  -8.57719806E+002                                         54.15  <-- SCF
      1  -8.57721843E+002                    2.54667448E-004      59.17  <-- SCF
      2  -8.57721845E+002                    2.25983491E-007      63.10  <-- SCF
      3  -8.57721847E+002                    2.24953644E-007      66.88  <-- SCF
      4  -8.57721847E+002                    3.62785870E-008      70.72  <-- SCF
------------------------------------------------------------------------ <-- SCF
 
Final energy =  -857.7218473004     eV
(energy not corrected for finite basis set)
 
Calculating total energy with cut-off of  320.000 eV.
------------------------------------------------------------------------ <-- SCF
SCF loop      Energy                           Energy gain       Timer   <-- SCF
                                               per atom          (sec)   <-- SCF
------------------------------------------------------------------------ <-- SCF
Initial  -8.57721847E+002                                         72.57  <-- SCF
      1  -8.57723724E+002                    2.34619538E-004      77.72  <-- SCF
      2  -8.57723726E+002                    1.78706768E-007      81.57  <-- SCF
      3  -8.57723727E+002                    2.18677055E-007      85.43  <-- SCF
      4  -8.57723728E+002                    3.18904215E-008      89.34  <-- SCF
------------------------------------------------------------------------ <-- SCF
 
Final energy =  -857.7237276959     eV
(energy not corrected for finite basis set)
 
 For future reference: finite basis dEtot/dlog(Ecut) =      -0.123199eV
 Total energy corrected for finite basis set =    -857.723711 eV
 
+---------------- MEMORY AND SCRATCH DISK ESTIMATES PER PROCESS --------------+
|                                                     Memory          Disk    |
| Model and support data                               51.2 MB        27.3 MB |
| Electronic energy minimisation requirements          42.0 MB         0.0 MB |
| Geometry minimisation requirements                   59.1 MB         0.0 MB |
|                                               ----------------------------- |
| Approx. total storage required per process          152.4 MB        27.3 MB |
|                                                                             |
| Requirements will fluctuate during execution and may exceed these estimates |
+-----------------------------------------------------------------------------+
 
 
 ************************************** Forces **************************************
 *                                                                                  *
 *                           Cartesian components (eV/A)                            *
 * -------------------------------------------------------------------------------- *
 *                         x                    y                    z              *
 *                                                                                  *
 * Si              1     -0.00000              0.00000              0.00001         *
 * Si              2     -0.00000              0.00001             -0.00001         *
 * Si              3      0.00000             -0.00001              0.00000         *
 * Si              4      0.00000             -0.00000             -0.00001         *
 * Si              5      0.01508             -0.01507             -0.00142         *
 * Si              6     -0.01507             -0.01507              0.00143         *
 * Si              7     -0.01507              0.01507             -0.00141         *
 * Si              8      0.01507              0.01506              0.00141         *
 *                                                                                  *
 ************************************************************************************
 BFGS: finished iteration     0 with enthalpy= -8.57723728E+002 eV
  
 +-----------+-----------------+-----------------+------------+-----+ <-- BFGS
 | Parameter |      value      |    tolerance    |    units   | OK? | <-- BFGS
 +-----------+-----------------+-----------------+------------+-----+ <-- BFGS
 |  dE/ion   |   0.000000E+000 |   5.000000E-006 |         eV | No  | <-- BFGS
 |  |F|max   |   2.136274E-002 |   1.000000E-002 |       eV/A | No  | <-- BFGS
 |  |dR|max  |   0.000000E+000 |   5.000000E-004 |          A | No  | <-- BFGS
 +-----------+-----------------+-----------------+------------+-----+ <-- BFGS
  

================================================================================
 Starting BFGS iteration          1 ...
================================================================================
  
 +------------+-------------+-------------+-----------------+ <-- min BFGS
 |    Step    |   lambda    |   F.delta'  |    enthalpy     | <-- min BFGS
 +------------+-------------+-------------+-----------------+ <-- min BFGS
 |  previous  |    0.000000 |    0.008049 |     -857.723728 | <-- min BFGS
 +------------+-------------+-------------+-----------------+ <-- min BFGS
  

--------------------------------------------------------------------------------
 BFGS: starting iteration         1 with trial guess (lambda=  1.000000)
--------------------------------------------------------------------------------
 
                           -------------------------------
                                     Cell Contents
                           -------------------------------
 
            xxxxxxxxxxxxxxxxxxxxxxxxxxxxxxxxxxxxxxxxxxxxxxxxxxxxxxxxxxxxxxxxx
            x  Element         Atom        Fractional coordinates of atoms  x
            x                 Number           u          v          w      x
            x---------------------------------------------------------------x
            x  Si                1        -0.000000  -0.000000   0.000000   x
            x  Si                2        -0.000000   0.500000   0.500000   x
            x  Si                3         0.500000  -0.000000   0.500000   x
            x  Si                4         0.500000   0.500000  -0.000000   x
            x  Si                5         0.750010   0.249990   0.749999   x
            x  Si                6         0.249990   0.249990   0.250001   x
            x  Si                7         0.249990   0.750010   0.749999   x
            x  Si                8         0.750010   0.750010   0.250001   x
            xxxxxxxxxxxxxxxxxxxxxxxxxxxxxxxxxxxxxxxxxxxxxxxxxxxxxxxxxxxxxxxxx
 
 
------------------------------------------------------------------------ <-- SCF
SCF loop      Energy                           Energy gain       Timer   <-- SCF
                                               per atom          (sec)   <-- SCF
------------------------------------------------------------------------ <-- SCF
Initial  -8.57724688E+002                                         92.95  <-- SCF
      1  -8.57723734E+002                   -1.19318738E-004      96.28  <-- SCF
      2  -8.57723734E+002                    1.16964858E-008     100.03  <-- SCF
      3  -8.57723734E+002                    4.03181210E-009     103.85  <-- SCF
      4  -8.57723734E+002                    1.24215548E-009     107.59  <-- SCF
------------------------------------------------------------------------ <-- SCF
 
Final energy =  -857.7237339049     eV
(energy not corrected for finite basis set)
 
 
 ************************************** Forces **************************************
 *                                                                                  *
 *                           Cartesian components (eV/A)                            *
 * -------------------------------------------------------------------------------- *
 *                         x                    y                    z              *
 *                                                                                  *
 * Si              1     -0.00000              0.00000              0.00001         *
 * Si              2     -0.00000              0.00000             -0.00000         *
 * Si              3      0.00000             -0.00000              0.00000         *
 * Si              4      0.00000             -0.00000             -0.00001         *
 * Si              5      0.01392             -0.01391             -0.00130         *
 * Si              6     -0.01392             -0.01391              0.00130         *
 * Si              7     -0.01392              0.01391             -0.00130         *
 * Si              8      0.01392              0.01391              0.00129         *
 *                                                                                  *
 ************************************************************************************
  
 +------------+-------------+-------------+-----------------+ <-- min BFGS
 |    Step    |   lambda    |   F.delta'  |    enthalpy     | <-- min BFGS
 +------------+-------------+-------------+-----------------+ <-- min BFGS
 |  previous  |    0.000000 |    0.008049 |     -857.723728 | <-- min BFGS
 | trial step |    1.000000 |    0.007434 |     -857.723734 | <-- min BFGS
 +------------+-------------+-------------+-----------------+ <-- min BFGS
  

--------------------------------------------------------------------------------
 BFGS: improving iteration         1 with line minimization (lambda= 13.073730)
--------------------------------------------------------------------------------
 
                           -------------------------------
                                     Cell Contents
                           -------------------------------
 
            xxxxxxxxxxxxxxxxxxxxxxxxxxxxxxxxxxxxxxxxxxxxxxxxxxxxxxxxxxxxxxxxx
            x  Element         Atom        Fractional coordinates of atoms  x
            x                 Number           u          v          w      x
            x---------------------------------------------------------------x
            x  Si                1        -0.000000   0.000000   0.000000   x
            x  Si                2        -0.000000   0.500000   0.500000   x
            x  Si                3         0.500000  -0.000000   0.500000   x
            x  Si                4         0.500000   0.500000  -0.000000   x
            x  Si                5         0.750134   0.249866   0.749988   x
            x  Si                6         0.249866   0.249866   0.250012   x
            x  Si                7         0.249866   0.750134   0.749988   x
            x  Si                8         0.750134   0.750134   0.250012   x
            xxxxxxxxxxxxxxxxxxxxxxxxxxxxxxxxxxxxxxxxxxxxxxxxxxxxxxxxxxxxxxxxx
 
 
------------------------------------------------------------------------ <-- SCF
SCF loop      Energy                           Energy gain       Timer   <-- SCF
                                               per atom          (sec)   <-- SCF
------------------------------------------------------------------------ <-- SCF
Initial  -8.57723847E+002                                        111.18  <-- SCF
      1  -8.57723770E+002                   -9.56212886E-006     116.24  <-- SCF
      2  -8.57723773E+002                    2.58753370E-007     120.15  <-- SCF
      3  -8.57723773E+002                    1.99035021E-008     124.02  <-- SCF
      4  -8.57723773E+002                    3.49432859E-008     127.92  <-- SCF
------------------------------------------------------------------------ <-- SCF
 
Final energy =  -857.7237729903     eV
(energy not corrected for finite basis set)
 
 
 ************************************** Forces **************************************
 *                                                                                  *
 *                           Cartesian components (eV/A)                            *
 * -------------------------------------------------------------------------------- *
 *                         x                    y                    z              *
 *                                                                                  *
 * Si              1      0.00001              0.00000             -0.00000         *
 * Si              2      0.00000             -0.00000              0.00001         *
 * Si              3     -0.00000              0.00000              0.00000         *
 * Si              4     -0.00000             -0.00000              0.00001         *
 * Si              5      0.00098             -0.00098              0.00007         *
 * Si              6     -0.00098             -0.00098             -0.00008         *
 * Si              7     -0.00098              0.00098              0.00007         *
 * Si              8      0.00097              0.00098             -0.00008         *
 *                                                                                  *
 ************************************************************************************
  
 +------------+-------------+-------------+-----------------+ <-- min BFGS
 |    Step    |   lambda    |   F.delta'  |    enthalpy     | <-- min BFGS
 +------------+-------------+-------------+-----------------+ <-- min BFGS
 |  previous  |    0.000000 |    0.008049 |     -857.723728 | <-- min BFGS
 | trial step |    1.000000 |    0.007434 |     -857.723734 | <-- min BFGS
 |  line step |   13.073730 |    0.000519 |     -857.723773 | <-- min BFGS
 +------------+-------------+-------------+-----------------+ <-- min BFGS
  
 BFGS: finished iteration     1 with enthalpy= -8.57723773E+002 eV
  
 +-----------+-----------------+-----------------+------------+-----+ <-- BFGS
 | Parameter |      value      |    tolerance    |    units   | OK? | <-- BFGS
 +-----------+-----------------+-----------------+------------+-----+ <-- BFGS
 |  dE/ion   |   5.661805E-006 |   5.000000E-006 |         eV | No  | <-- BFGS
 |  |F|max   |   1.391068E-003 |   1.000000E-002 |       eV/A | Yes | <-- BFGS
 |  |dR|max  |   9.721732E-004 |   5.000000E-004 |          A | No  | <-- BFGS
 +-----------+-----------------+-----------------+------------+-----+ <-- BFGS
  

================================================================================
 Starting BFGS iteration          2 ...
================================================================================
  
 +------------+-------------+-------------+-----------------+ <-- min BFGS
 |    Step    |   lambda    |   F.delta'  |    enthalpy     | <-- min BFGS
 +------------+-------------+-------------+-----------------+ <-- min BFGS
 |  previous  |    0.000000 |    0.000519 |     -857.723773 | <-- min BFGS
 +------------+-------------+-------------+-----------------+ <-- min BFGS
  

--------------------------------------------------------------------------------
 BFGS: starting iteration         2 with trial guess (lambda=  1.000000)
--------------------------------------------------------------------------------
 
                           -------------------------------
                                     Cell Contents
                           -------------------------------
 
            xxxxxxxxxxxxxxxxxxxxxxxxxxxxxxxxxxxxxxxxxxxxxxxxxxxxxxxxxxxxxxxxx
            x  Element         Atom        Fractional coordinates of atoms  x
            x                 Number           u          v          w      x
            x---------------------------------------------------------------x
            x  Si                1        -0.000000   0.000000   0.000000   x
            x  Si                2        -0.000000   0.500000   0.500000   x
            x  Si                3         0.500000  -0.000000   0.500000   x
            x  Si                4         0.500000   0.500000  -0.000000   x
            x  Si                5         0.750143   0.249857   0.749987   x
            x  Si                6         0.249857   0.249857   0.250013   x
            x  Si                7         0.249857   0.750143   0.749988   x
            x  Si                8         0.750143   0.750143   0.250012   x
            xxxxxxxxxxxxxxxxxxxxxxxxxxxxxxxxxxxxxxxxxxxxxxxxxxxxxxxxxxxxxxxxx
 
 
------------------------------------------------------------------------ <-- SCF
SCF loop      Energy                           Energy gain       Timer   <-- SCF
                                               per atom          (sec)   <-- SCF
------------------------------------------------------------------------ <-- SCF
Initial  -8.57723814E+002                                        131.45  <-- SCF
      1  -8.57723773E+002                   -5.14285210E-006     134.80  <-- SCF
      2  -8.57723773E+002                    1.32547661E-008     138.61  <-- SCF
      3  -8.57723773E+002                    6.17862114E-009     142.41  <-- SCF
      4  -8.57723773E+002                    2.27752472E-009     146.25  <-- SCF
------------------------------------------------------------------------ <-- SCF
 
Final energy =  -857.7237734153     eV
(energy not corrected for finite basis set)
 
 
 ************************************** Forces **************************************
 *                                                                                  *
 *                           Cartesian components (eV/A)                            *
 * -------------------------------------------------------------------------------- *
 *                         x                    y                    z              *
 *                                                                                  *
 * Si              1      0.00001              0.00000             -0.00000         *
 * Si              2      0.00000             -0.00000              0.00000         *
 * Si              3     -0.00000              0.00000              0.00000         *
 * Si              4     -0.00000             -0.00000              0.00001         *
 * Si              5      0.00028             -0.00028              0.00015         *
 * Si              6     -0.00028             -0.00028             -0.00016         *
 * Si              7     -0.00028              0.00028              0.00015         *
 * Si              8      0.00027              0.00028             -0.00016         *
 *                                                                                  *
 ************************************************************************************
  
 +------------+-------------+-------------+-----------------+ <-- min BFGS
 |    Step    |   lambda    |   F.delta'  |    enthalpy     | <-- min BFGS
 +------------+-------------+-------------+-----------------+ <-- min BFGS
 |  previous  |    0.000000 |    0.000519 |     -857.723773 | <-- min BFGS
 | trial step |    1.000000 |    0.000144 |     -857.723773 | <-- min BFGS
 +------------+-------------+-------------+-----------------+ <-- min BFGS
  
 BFGS: finished iteration     2 with enthalpy= -8.57723773E+002 eV
  
 +-----------+-----------------+-----------------+------------+-----+ <-- BFGS
 | Parameter |      value      |    tolerance    |    units   | OK? | <-- BFGS
 +-----------+-----------------+-----------------+------------+-----+ <-- BFGS
 |  dE/ion   |   5.312067E-008 |   5.000000E-006 |         eV | Yes | <-- BFGS
 |  |F|max   |   4.255259E-004 |   1.000000E-002 |       eV/A | Yes | <-- BFGS
 |  |dR|max  |   6.700707E-005 |   5.000000E-004 |          A | Yes | <-- BFGS
 +-----------+-----------------+-----------------+------------+-----+ <-- BFGS
  
 BFGS: Geometry optimization completed successfully.

================================================================================
 BFGS: Final Configuration:
================================================================================
 
                           -------------------------------
                                     Cell Contents
                           -------------------------------
 
            xxxxxxxxxxxxxxxxxxxxxxxxxxxxxxxxxxxxxxxxxxxxxxxxxxxxxxxxxxxxxxxxx
            x  Element         Atom        Fractional coordinates of atoms  x
            x                 Number           u          v          w      x
            x---------------------------------------------------------------x
            x  Si                1        -0.000000   0.000000   0.000000   x
            x  Si                2        -0.000000   0.500000   0.500000   x
            x  Si                3         0.500000  -0.000000   0.500000   x
            x  Si                4         0.500000   0.500000  -0.000000   x
            x  Si                5         0.750143   0.249857   0.749987   x
            x  Si                6         0.249857   0.249857   0.250013   x
            x  Si                7         0.249857   0.750143   0.749988   x
            x  Si                8         0.750143   0.750143   0.250012   x
            xxxxxxxxxxxxxxxxxxxxxxxxxxxxxxxxxxxxxxxxxxxxxxxxxxxxxxxxxxxxxxxxx
 
 
 BFGS: Final Enthalpy     = -8.57723773E+002 eV
 BFGS: Final <frequency>  =     463.01978 cm-1
 
 ************************************** Forces **************************************
 *                                                                                  *
 *                           Cartesian components (eV/A)                            *
 * -------------------------------------------------------------------------------- *
 *                         x                    y                    z              *
 *                                                                                  *
 * Si              1      0.00001              0.00000             -0.00000         *
 * Si              2      0.00000             -0.00000              0.00000         *
 * Si              3     -0.00000              0.00000              0.00000         *
 * Si              4     -0.00000             -0.00000              0.00001         *
 * Si              5      0.00028             -0.00028              0.00015         *
 * Si              6     -0.00028             -0.00028             -0.00016         *
 * Si              7     -0.00028              0.00028              0.00015         *
 * Si              8      0.00027              0.00028             -0.00016         *
 *                                                                                  *
 ************************************************************************************
 
 ***************** Stress Tensor *****************
 *                                               *
 *          Cartesian components (GPa)           *
 * --------------------------------------------- *
 *             x             y             z     *
 *                                               *
 *  x    -16.761478      0.000010     -0.000007  *
 *  y      0.000010    -16.761478      0.000006  *
 *  z     -0.000007      0.000006     -9.968431  *
 *                                               *
 *  Pressure:   14.4971                          *
 *                                               *
 *************************************************

Writing analysis data to Si.castep_bin

Writing model to Si.check
 
 A BibTeX formatted list of references used in this run has been written to 
 Si.bib
 
Initialisation time =      0.58 s
Calculation time    =    155.70 s
Finalisation time   =      0.51 s
Total time          =    156.80 s
  
Overall parallel efficiency rating: Excellent (97%)                             
  
Data was distributed by:-
k-point (8-way); efficiency rating: Excellent (98%)                             
  
Parallel notes:
1) Calculation only took 156.4 s, so efficiency estimates may be inaccurate.    
