 Job started on host YOS-20180822FRE
 at Fri May  3 01:13:31 2019

 +-------------------------------------------------+
 |                                                 |
 |      CCC   AA    SSS  TTTTT  EEEEE  PPPP        |
 |     C     A  A  S       T    E      P   P       |
 |     C     AAAA   SS     T    EEE    PPPP        |
 |     C     A  A     S    T    E      P           |
 |      CCC  A  A  SSS     T    EEEEE  P           |
 |                                                 |
 +-------------------------------------------------+
 |                                                 |
 | Materials Studio CASTEP version 2017 R2         |
 | Ab Initio Total Energy Program                  |
 |                                                 |
 | Authors:                                        |
 | M. Segall, M. Probert, C. Pickard, P. Hasnip,   |
 | S. Clark, K. Refson, J. R. Yates, M. Payne      |
 |                                                 |
 | Contributors:                                   |
 | P. Lindan, P. Haynes, J. White, V. Milman,      |
 | N. Govind, M. Gibson, P. Tulip, V. Cocula,      |
 | B. Montanari, D. Quigley, M. Glover,            |
 | L. Bernasconi, A. Perlov, M. Plummer,           |
 | E. McNellis, J. Meyer, J. Gale, D. Jochym       |
 | J. Aarons, B. Walker, R. Gillen, D. Jones       |
 | T. Green, I. J. Bush, C. J. Armstrong,          |
 | E. J. Higgins, E. L. Brown, M. S. McFly,        |
 | J. Wilkins, B-C. Shih, P. J. P. Byrne           |
 |                                                 |
 | Copyright (c) 2000 - 2016                       |
 |                                                 |
 | Please cite                                     |
 |                                                 |
 |     "First principles methods using CASTEP"     |
 |                                                 |
 |         Zeitschrift fuer Kristallographie       |
 |           220(5-6) pp. 567-570 (2005)           |
 |                                                 |
 | S. J. Clark, M. D. Segall, C. J. Pickard,       |
 | P. J. Hasnip, M. J. Probert, K. Refson,         |
 | M. C. Payne                                     |
 |                                                 |
 |       in all publications arising from          |
 |              your use of CASTEP                 |
 |                                                 |
 +-------------------------------------------------+
 
 
 This version was compiled for i686-windows-msvc2013 on Dec 07 2016
 Code version: 7217
 Intel(R) Math Kernel Library Version 11.1.2 
 Fundamental constants values: CODATA 2010
 
License checkout of MS_castep successful
 
 
 Pseudo atomic calculation performed for Si 3s2 3p2
 
 Converged in 17 iterations to a total energy of -101.9015 eV
 
 Calculation parallelised over 8 processes.
 Data is distributed by k-point(8-way)

 ************************************ Title ************************************
 CASTEP calculation from Materials Studio

 ***************************** General Parameters ******************************
  
 output verbosity                               : normal  (1)
 write checkpoint data to                       : Si.check
 type of calculation                            : geometry optimization
 stress calculation                             : on
 density difference calculation                 : off
 electron localisation func (ELF) calculation   : off
 Hirshfeld analysis                             : off
 unlimited duration calculation
 timing information                             : on
 memory usage estimate                          : on
 write final potential to formatted file        : off
 write final density to formatted file          : off
 write BibTeX reference list                    : on
 write OTFG pseudopotential files               : on
 write electrostatic potential file             : on
 write bands file                               : on
 checkpoint writing                             : both castep_bin and check files
  
 output         length unit                     : A
 output           mass unit                     : amu
 output           time unit                     : ps
 output         charge unit                     : e
 output           spin unit                     : hbar/2
 output         energy unit                     : eV
 output          force unit                     : eV/A
 output       velocity unit                     : A/ps
 output       pressure unit                     : GPa
 output     inv_length unit                     : 1/A
 output      frequency unit                     : cm-1
 output force constant unit                     : eV/A**2
 output         volume unit                     : A**3
 output   IR intensity unit                     : (D/A)**2/amu
 output         dipole unit                     : D
 output         efield unit                     : eV/A/e
 output        entropy unit                     : J/mol/K
  
 wavefunctions paging                           : none
 random number generator seed                   : randomised (11332700)
 data distribution                              : optimal for this architecture
 optimization strategy                          : balance speed and memory

 *********************** Exchange-Correlation Parameters ***********************
  
 using functional                               : Perdew Burke Ernzerhof
 relativistic treatment                         : Koelling-Harmon
 DFT+D: Semi-empirical dispersion correction    : off

 ************************* Pseudopotential Parameters **************************
  
 pseudopotential representation                 : reciprocal space
 <beta|phi> representation                      : reciprocal space
 spin-orbit coupling                            : off

 **************************** Basis Set Parameters *****************************
  
 plane wave basis set cut-off                   :   320.0000   eV
 size of standard grid                          :     2.0000
 size of   fine   grid                          :     3.0000
 size of   fine   gmax                          :    27.4938   1/A
 largest prime factor in FFT                    :          5
 finite basis set correction                    : automatic
 number of sample energies                      :          3
           sample  spacing                      :     5.0000   eV

 **************************** Electronic Parameters ****************************
  
 number of  electrons                           :  32.00    
 net charge of system                           :  0.000    
 treating system as non-spin-polarized
 number of bands                                :         16

 ********************* Electronic Minimization Parameters **********************
  
 Method: Treating system as non-metallic,
         and number of  SD  steps               :          1
         and number of  CG  steps               :          4
  
 total energy / atom convergence tol.           : 0.5000E-06   eV
 eigen-energy convergence tolerance             : 0.2500E-06   eV
 max force / atom convergence tol.              : ignored
 convergence tolerance window                   :          3   cycles
 max. number of SCF cycles                      :        100
 periodic dipole correction                     : NONE

 ************************** Density Mixing Parameters **************************
  
 density-mixing scheme                          : Pulay
 max. length of mixing history                  :         20
 charge density mixing amplitude                : 0.5000    
 cut-off energy for mixing                      :  320.0       eV
 charge density mixing g-vector                 :  1.500       1/A

 ********************** Geometry Optimization Parameters ***********************
  
 optimization method                            : BFGS
 variable cell method                           : fixed basis quality
 max. number of steps                           :        100
 estimated bulk modulus                         :  500.0       GPa
 estimated <frequency>                          :  1668.       cm-1
 geom line minimiser                            : on
 with line minimiser tolerance                  :     0.4000
 total energy convergence tolerance             : 0.5000E-05   eV/atom
        max ionic |force| tolerance             : 0.1000E-01   eV/A
 max ionic |displacement| tolerance             : 0.5000E-03   A
   max |stress component| tolerance             : 0.2000E-01   GPa
 convergence tolerance window                   :          2   steps
 backup results every                           :          5   steps
 write geom trajectory file                     : on

 *******************************************************************************
  
 
                           -------------------------------
                                      Unit Cell
                           -------------------------------
        Real Lattice(A)                      Reciprocal Lattice(1/A)
   5.2415685   0.0000000  -0.0000000        1.1987224   0.0000000   0.0000000
   0.0000000   5.4603323  -0.2187639       -0.0000000   1.1525465   0.0461759
   0.0000000  -0.2187639   5.4603324        0.0000000   0.0461759   1.1525465
 
                       Lattice parameters(A)       Cell Angles
                    a =    5.241568          alpha =   94.588566
                    b =    5.464713          beta  =   90.000001
                    c =    5.464713          gamma =   90.000000
 
                       Current cell volume =  156.027716       A**3
                                   density =    1.440026   AMU/A**3
                                           =    2.391220     g/cm^3
 
                           -------------------------------
                                     Cell Contents
                           -------------------------------
                         Total number of ions in cell =    8
                      Total number of species in cell =    1
                        Max number of any one species =    8
 
            xxxxxxxxxxxxxxxxxxxxxxxxxxxxxxxxxxxxxxxxxxxxxxxxxxxxxxxxxxxx
            x  Element    Atom        Fractional coordinates of atoms  x
            x            Number           u          v          w      x
            x----------------------------------------------------------x
            x  Si           1         0.000000  -0.000000  -0.000000   x 
            x  Si           2         0.000000   0.500000   0.500000   x 
            x  Si           3         0.500000   0.000000   0.500000   x 
            x  Si           4         0.500000   0.500000  -0.000000   x 
            x  Si           5         0.750000   0.250000   0.750000   x 
            x  Si           6         0.250000   0.250000   0.250000   x 
            x  Si           7         0.250000   0.750000   0.750000   x 
            x  Si           8         0.750000   0.750000   0.250000   x 
            xxxxxxxxxxxxxxxxxxxxxxxxxxxxxxxxxxxxxxxxxxxxxxxxxxxxxxxxxxxx
 
 
                         No user defined ionic velocities
 
                           -------------------------------
                                   Details of Species
                           -------------------------------
 
                               Mass of species in AMU
                                    Si   28.0849991
 
                          Electric Quadrupole Moment (Barn)
                                    Si    1.0000000 No Isotope Defined
 
                          Files used for pseudopotentials:
                                    Si D:\PROGRA~1\BIOVIA\MATERI~1.2\share\Resources\Quantum\Castep\Potentials\Si_00PBE.usp
 
                           -------------------------------
                              k-Points For BZ Sampling
                           -------------------------------
                       MP grid size for SCF calculation is  8  8  8
                            with an offset of   0.000  0.000  0.000
                       Number of kpoints used =           256
 
                           -------------------------------
                               Symmetry and Constraints
                           -------------------------------
 
                      Cell is a supercell containing 4 primitive cells
                      Maximum deviation from symmetry =  0.00000         ANG
 
                      Number of symmetry operations   =           1
         There are no ionic constraints specified or generated for this cell
                      Point group of crystal =     1: C1, 1, 1
                      Space group of crystal =    74: Imma, -I 2b 2
 
             Set iprint > 1 for details on symmetry rotations/translations
 
                         Centre of mass is NOT constrained
 
                         Number of cell constraints= 6
                         Cell constraints are:  0 0 0 0 0 0
 
                         External pressure/stress (GPa)
                          0.00000   0.00000   0.00000
                                    0.00000   0.00000
                                              0.00000
  
+---------------- MEMORY AND SCRATCH DISK ESTIMATES PER PROCESS --------------+
|                                                     Memory          Disk    |
| Baseline code, static data and system overhead        0.0 MB         0.0 MB |
| BLAS internal memory storage                          0.0 MB         0.0 MB |
| Model and support data                               50.7 MB        31.0 MB |
| Electronic energy minimisation requirements          45.7 MB         0.0 MB |
| Force calculation requirements                       14.2 MB         0.0 MB |
| Stress calculation requirements                      17.5 MB         0.0 MB |
|                                               ----------------------------- |
| Approx. total storage required per process           96.4 MB        31.0 MB |
|                                                                             |
| Requirements will fluctuate during execution and may exceed these estimates |
+-----------------------------------------------------------------------------+
Calculating finite basis set correction with  3 cut-off energies.
Calculating total energy with cut-off of  310.000 eV.
------------------------------------------------------------------------ <-- SCF
SCF loop      Energy                           Energy gain       Timer   <-- SCF
                                               per atom          (sec)   <-- SCF
------------------------------------------------------------------------ <-- SCF
Initial   3.99174121E+002                                          1.76  <-- SCF
      1  -7.43641679E+002                    1.42851975E+002       9.39  <-- SCF
      2  -8.55620456E+002                    1.39973472E+001      15.27  <-- SCF
      3  -8.58707634E+002                    3.85897280E-001      20.40  <-- SCF
      4  -8.58346881E+002                   -4.50941850E-002      28.24  <-- SCF
      5  -8.58152149E+002                   -2.43415076E-002      34.88  <-- SCF
      6  -8.58164781E+002                    1.57908974E-003      42.82  <-- SCF
      7  -8.58165943E+002                    1.45263502E-004      50.17  <-- SCF
      8  -8.58166006E+002                    7.81957236E-006      56.75  <-- SCF
      9  -8.58166008E+002                    2.10810103E-007      61.40  <-- SCF
     10  -8.58166008E+002                    3.16088578E-008      66.05  <-- SCF
------------------------------------------------------------------------ <-- SCF
 
Final energy =  -858.1660078984     eV
(energy not corrected for finite basis set)
 
Calculating total energy with cut-off of  315.000 eV.
------------------------------------------------------------------------ <-- SCF
SCF loop      Energy                           Energy gain       Timer   <-- SCF
                                               per atom          (sec)   <-- SCF
------------------------------------------------------------------------ <-- SCF
Initial  -8.58166008E+002                                         68.28  <-- SCF
      1  -8.58167835E+002                    2.28448359E-004      74.33  <-- SCF
      2  -8.58167837E+002                    2.10192209E-007      79.15  <-- SCF
      3  -8.58167839E+002                    2.22789301E-007      83.91  <-- SCF
      4  -8.58167839E+002                    4.02447452E-008      88.66  <-- SCF
------------------------------------------------------------------------ <-- SCF
 
Final energy =  -858.1678392635     eV
(energy not corrected for finite basis set)
 
Calculating total energy with cut-off of  320.000 eV.
------------------------------------------------------------------------ <-- SCF
SCF loop      Energy                           Energy gain       Timer   <-- SCF
                                               per atom          (sec)   <-- SCF
------------------------------------------------------------------------ <-- SCF
Initial  -8.58167839E+002                                         90.92  <-- SCF
      1  -8.58169382E+002                    1.92844630E-004      96.95  <-- SCF
      2  -8.58169383E+002                    1.50912846E-007     101.71  <-- SCF
      3  -8.58169385E+002                    1.91984253E-007     106.44  <-- SCF
      4  -8.58169385E+002                    3.01257538E-008     111.28  <-- SCF
------------------------------------------------------------------------ <-- SCF
 
Final energy =  -858.1693850057     eV
(energy not corrected for finite basis set)
 
 For future reference: finite basis dEtot/dlog(Ecut) =      -0.105526eV
 Total energy corrected for finite basis set =    -858.169375 eV
 
+---------------- MEMORY AND SCRATCH DISK ESTIMATES PER PROCESS --------------+
|                                                     Memory          Disk    |
| Model and support data                               54.8 MB        31.0 MB |
| Electronic energy minimisation requirements          45.7 MB         0.0 MB |
| Geometry minimisation requirements                   64.2 MB         0.0 MB |
|                                               ----------------------------- |
| Approx. total storage required per process          164.7 MB        31.0 MB |
|                                                                             |
| Requirements will fluctuate during execution and may exceed these estimates |
+-----------------------------------------------------------------------------+
 
 
 ************************************** Forces **************************************
 *                                                                                  *
 *                           Cartesian components (eV/A)                            *
 * -------------------------------------------------------------------------------- *
 *                         x                    y                    z              *
 *                                                                                  *
 * Si              1     -0.89670             -0.00000              0.00000         *
 * Si              2     -0.89670             -0.00000              0.00000         *
 * Si              3     -0.89673             -0.00000             -0.00000         *
 * Si              4     -0.89673              0.00000              0.00000         *
 * Si              5      0.89672              0.00000             -0.00000         *
 * Si              6      0.89671             -0.00000             -0.00000         *
 * Si              7      0.89671             -0.00000             -0.00000         *
 * Si              8      0.89672              0.00000             -0.00000         *
 *                                                                                  *
 ************************************************************************************
 BFGS: finished iteration     0 with enthalpy= -8.58169385E+002 eV
  
 +-----------+-----------------+-----------------+------------+-----+ <-- BFGS
 | Parameter |      value      |    tolerance    |    units   | OK? | <-- BFGS
 +-----------+-----------------+-----------------+------------+-----+ <-- BFGS
 |  dE/ion   |   0.000000E+000 |   5.000000E-006 |         eV | No  | <-- BFGS
 |  |F|max   |   8.967288E-001 |   1.000000E-002 |       eV/A | No  | <-- BFGS
 |  |dR|max  |   0.000000E+000 |   5.000000E-004 |          A | No  | <-- BFGS
 +-----------+-----------------+-----------------+------------+-----+ <-- BFGS
  

================================================================================
 Starting BFGS iteration          1 ...
================================================================================
  
 +------------+-------------+-------------+-----------------+ <-- min BFGS
 |    Step    |   lambda    |   F.delta'  |    enthalpy     | <-- min BFGS
 +------------+-------------+-------------+-----------------+ <-- min BFGS
 |  previous  |    0.000000 |    0.488550 |     -858.169385 | <-- min BFGS
 +------------+-------------+-------------+-----------------+ <-- min BFGS
  

--------------------------------------------------------------------------------
 BFGS: starting iteration         1 with trial guess (lambda=  1.000000)
--------------------------------------------------------------------------------
 
                           -------------------------------
                                     Cell Contents
                           -------------------------------
 
            xxxxxxxxxxxxxxxxxxxxxxxxxxxxxxxxxxxxxxxxxxxxxxxxxxxxxxxxxxxxxxxxx
            x  Element         Atom        Fractional coordinates of atoms  x
            x                 Number           u          v          w      x
            x---------------------------------------------------------------x
            x  Si                1        -0.000595  -0.000000   0.000000   x
            x  Si                2        -0.000595   0.500000   0.500000   x
            x  Si                3         0.499404   0.000000   0.500000   x
            x  Si                4         0.499404   0.500000  -0.000000   x
            x  Si                5         0.750596   0.250000   0.750000   x
            x  Si                6         0.250595   0.250000   0.250000   x
            x  Si                7         0.250595   0.750000   0.750000   x
            x  Si                8         0.750596   0.750000   0.250000   x
            xxxxxxxxxxxxxxxxxxxxxxxxxxxxxxxxxxxxxxxxxxxxxxxxxxxxxxxxxxxxxxxxx
 
 
------------------------------------------------------------------------ <-- SCF
SCF loop      Energy                           Energy gain       Timer   <-- SCF
                                               per atom          (sec)   <-- SCF
------------------------------------------------------------------------ <-- SCF
Initial  -8.58123158E+002                                        115.35  <-- SCF
      1  -8.58190635E+002                    8.43462363E-003     121.34  <-- SCF
      2  -8.58190688E+002                    6.72364798E-006     129.65  <-- SCF
      3  -8.58190693E+002                    5.62964935E-007     134.43  <-- SCF
      4  -8.58190696E+002                    3.67847976E-007     139.18  <-- SCF
      5  -8.58190696E+002                    1.84956832E-008     144.00  <-- SCF
------------------------------------------------------------------------ <-- SCF
 
Final energy =  -858.1906959383     eV
(energy not corrected for finite basis set)
 
 
 ************************************** Forces **************************************
 *                                                                                  *
 *                           Cartesian components (eV/A)                            *
 * -------------------------------------------------------------------------------- *
 *                         x                    y                    z              *
 *                                                                                  *
 * Si              1     -0.80984              0.00000              0.00000         *
 * Si              2     -0.80984              0.00000              0.00000         *
 * Si              3     -0.80986              0.00000             -0.00000         *
 * Si              4     -0.80986              0.00000             -0.00000         *
 * Si              5      0.80986              0.00000              0.00000         *
 * Si              6      0.80984             -0.00000             -0.00000         *
 * Si              7      0.80984             -0.00000             -0.00000         *
 * Si              8      0.80986             -0.00000              0.00000         *
 *                                                                                  *
 ************************************************************************************
  
 +------------+-------------+-------------+-----------------+ <-- min BFGS
 |    Step    |   lambda    |   F.delta'  |    enthalpy     | <-- min BFGS
 +------------+-------------+-------------+-----------------+ <-- min BFGS
 |  previous  |    0.000000 |    0.488550 |     -858.169385 | <-- min BFGS
 | trial step |    1.000000 |    0.441225 |     -858.190696 | <-- min BFGS
 +------------+-------------+-------------+-----------------+ <-- min BFGS
  

--------------------------------------------------------------------------------
 BFGS: improving iteration         1 with line minimization (lambda= 10.323181)
--------------------------------------------------------------------------------
 
                           -------------------------------
                                     Cell Contents
                           -------------------------------
 
            xxxxxxxxxxxxxxxxxxxxxxxxxxxxxxxxxxxxxxxxxxxxxxxxxxxxxxxxxxxxxxxxx
            x  Element         Atom        Fractional coordinates of atoms  x
            x                 Number           u          v          w      x
            x---------------------------------------------------------------x
            x  Si                1        -0.006147  -0.000000   0.000000   x
            x  Si                2        -0.006147   0.500000   0.500000   x
            x  Si                3         0.493852   0.000000   0.500000   x
            x  Si                4         0.493852   0.500000   0.000000   x
            x  Si                5         0.756147   0.250000   0.750000   x
            x  Si                6         0.256147   0.250000   0.250000   x
            x  Si                7         0.256147   0.750000   0.750000   x
            x  Si                8         0.756147   0.750000   0.250000   x
            xxxxxxxxxxxxxxxxxxxxxxxxxxxxxxxxxxxxxxxxxxxxxxxxxxxxxxxxxxxxxxxxx
 
 
------------------------------------------------------------------------ <-- SCF
SCF loop      Energy                           Energy gain       Timer   <-- SCF
                                               per atom          (sec)   <-- SCF
------------------------------------------------------------------------ <-- SCF
Initial  -8.57843377E+002                                        148.06  <-- SCF
      1  -8.58277649E+002                    5.42839992E-002     154.22  <-- SCF
      2  -8.58282282E+002                    5.79127187E-004     162.85  <-- SCF
      3  -8.58282688E+002                    5.07088543E-005     170.34  <-- SCF
      4  -8.58282935E+002                    3.08620045E-005     177.06  <-- SCF
      5  -8.58282936E+002                    2.07974937E-007     181.80  <-- SCF
      6  -8.58282938E+002                    1.92317888E-007     186.67  <-- SCF
------------------------------------------------------------------------ <-- SCF
 
Final energy =  -858.2829379804     eV
(energy not corrected for finite basis set)
 
 
 ************************************** Forces **************************************
 *                                                                                  *
 *                           Cartesian components (eV/A)                            *
 * -------------------------------------------------------------------------------- *
 *                         x                    y                    z              *
 *                                                                                  *
 * Si              1      0.01902              0.00000             -0.00000         *
 * Si              2      0.01902              0.00000              0.00000         *
 * Si              3      0.01900              0.00000              0.00000         *
 * Si              4      0.01900             -0.00000             -0.00000         *
 * Si              5     -0.01901             -0.00000              0.00000         *
 * Si              6     -0.01901             -0.00000             -0.00000         *
 * Si              7     -0.01901              0.00000             -0.00000         *
 * Si              8     -0.01901             -0.00000              0.00000         *
 *                                                                                  *
 ************************************************************************************
  
 +------------+-------------+-------------+-----------------+ <-- min BFGS
 |    Step    |   lambda    |   F.delta'  |    enthalpy     | <-- min BFGS
 +------------+-------------+-------------+-----------------+ <-- min BFGS
 |  previous  |    0.000000 |    0.488550 |     -858.169385 | <-- min BFGS
 | trial step |    1.000000 |    0.441225 |     -858.190696 | <-- min BFGS
 |  line step |   10.323181 |   -0.010357 |     -858.282938 | <-- min BFGS
 +------------+-------------+-------------+-----------------+ <-- min BFGS
  
 BFGS: finished iteration     1 with enthalpy= -8.58282938E+002 eV
  
 +-----------+-----------------+-----------------+------------+-----+ <-- BFGS
 | Parameter |      value      |    tolerance    |    units   | OK? | <-- BFGS
 +-----------+-----------------+-----------------+------------+-----+ <-- BFGS
 |  dE/ion   |   1.419412E-002 |   5.000000E-006 |         eV | No  | <-- BFGS
 |  |F|max   |   1.901927E-002 |   1.000000E-002 |       eV/A | No  | <-- BFGS
 |  |dR|max  |   3.222269E-002 |   5.000000E-004 |          A | No  | <-- BFGS
 +-----------+-----------------+-----------------+------------+-----+ <-- BFGS
  

================================================================================
 Starting BFGS iteration          2 ...
================================================================================
  
 +------------+-------------+-------------+-----------------+ <-- min BFGS
 |    Step    |   lambda    |   F.delta'  |    enthalpy     | <-- min BFGS
 +------------+-------------+-------------+-----------------+ <-- min BFGS
 |  previous  |    0.000000 |    0.010357 |     -858.282938 | <-- min BFGS
 +------------+-------------+-------------+-----------------+ <-- min BFGS
  

--------------------------------------------------------------------------------
 BFGS: starting iteration         2 with trial guess (lambda=  1.000000)
--------------------------------------------------------------------------------
 
                           -------------------------------
                                     Cell Contents
                           -------------------------------
 
            xxxxxxxxxxxxxxxxxxxxxxxxxxxxxxxxxxxxxxxxxxxxxxxxxxxxxxxxxxxxxxxxx
            x  Element         Atom        Fractional coordinates of atoms  x
            x                 Number           u          v          w      x
            x---------------------------------------------------------------x
            x  Si                1        -0.006020  -0.000000   0.000000   x
            x  Si                2        -0.006020   0.500000   0.500000   x
            x  Si                3         0.493980   0.000000   0.500000   x
            x  Si                4         0.493980   0.500000  -0.000000   x
            x  Si                5         0.756020   0.250000   0.750000   x
            x  Si                6         0.256020   0.250000   0.250000   x
            x  Si                7         0.256020   0.750000   0.750000   x
            x  Si                8         0.756020   0.750000   0.250000   x
            xxxxxxxxxxxxxxxxxxxxxxxxxxxxxxxxxxxxxxxxxxxxxxxxxxxxxxxxxxxxxxxxx
 
 
------------------------------------------------------------------------ <-- SCF
SCF loop      Energy                           Energy gain       Timer   <-- SCF
                                               per atom          (sec)   <-- SCF
------------------------------------------------------------------------ <-- SCF
Initial  -8.58292988E+002                                        190.79  <-- SCF
      1  -8.58282987E+002                   -1.25012513E-003     196.97  <-- SCF
      2  -8.58282989E+002                    2.21802075E-007     201.76  <-- SCF
      3  -8.58282990E+002                    6.39863605E-008     206.55  <-- SCF
      4  -8.58282990E+002                    3.01050655E-008     211.35  <-- SCF
------------------------------------------------------------------------ <-- SCF
 
Final energy =  -858.2829899737     eV
(energy not corrected for finite basis set)
 
 
 ************************************** Forces **************************************
 *                                                                                  *
 *                           Cartesian components (eV/A)                            *
 * -------------------------------------------------------------------------------- *
 *                         x                    y                    z              *
 *                                                                                  *
 * Si              1     -0.00003              0.00000             -0.00000         *
 * Si              2     -0.00003              0.00000              0.00000         *
 * Si              3     -0.00005              0.00000              0.00000         *
 * Si              4     -0.00005             -0.00000             -0.00000         *
 * Si              5      0.00005             -0.00000              0.00000         *
 * Si              6      0.00004              0.00000              0.00000         *
 * Si              7      0.00004              0.00000              0.00000         *
 * Si              8      0.00005             -0.00000              0.00000         *
 *                                                                                  *
 ************************************************************************************
  
 +------------+-------------+-------------+-----------------+ <-- min BFGS
 |    Step    |   lambda    |   F.delta'  |    enthalpy     | <-- min BFGS
 +------------+-------------+-------------+-----------------+ <-- min BFGS
 |  previous  |    0.000000 |    0.010357 |     -858.282938 | <-- min BFGS
 | trial step |    1.000000 |   -0.000023 |     -858.282990 | <-- min BFGS
 +------------+-------------+-------------+-----------------+ <-- min BFGS
  
 BFGS: finished iteration     2 with enthalpy= -8.58282990E+002 eV
  
 +-----------+-----------------+-----------------+------------+-----+ <-- BFGS
 | Parameter |      value      |    tolerance    |    units   | OK? | <-- BFGS
 +-----------+-----------------+-----------------+------------+-----+ <-- BFGS
 |  dE/ion   |   6.499166E-006 |   5.000000E-006 |         eV | No  | <-- BFGS
 |  |F|max   |   5.367932E-005 |   1.000000E-002 |       eV/A | Yes | <-- BFGS
 |  |dR|max  |   6.689297E-004 |   5.000000E-004 |          A | No  | <-- BFGS
 +-----------+-----------------+-----------------+------------+-----+ <-- BFGS
  

================================================================================
 Starting BFGS iteration          3 ...
================================================================================
  
 +------------+-------------+-------------+-----------------+ <-- min BFGS
 |    Step    |   lambda    |   F.delta'  |    enthalpy     | <-- min BFGS
 +------------+-------------+-------------+-----------------+ <-- min BFGS
 |  previous  |    0.000000 |    0.000023 |     -858.282990 | <-- min BFGS
 +------------+-------------+-------------+-----------------+ <-- min BFGS
  

--------------------------------------------------------------------------------
 BFGS: starting iteration         3 with trial guess (lambda=  1.000000)
--------------------------------------------------------------------------------
 
                           -------------------------------
                                     Cell Contents
                           -------------------------------
 
            xxxxxxxxxxxxxxxxxxxxxxxxxxxxxxxxxxxxxxxxxxxxxxxxxxxxxxxxxxxxxxxxx
            x  Element         Atom        Fractional coordinates of atoms  x
            x                 Number           u          v          w      x
            x---------------------------------------------------------------x
            x  Si                1        -0.006020  -0.000000   0.000000   x
            x  Si                2        -0.006020   0.500000   0.500000   x
            x  Si                3         0.493980   0.000000   0.500000   x
            x  Si                4         0.493980   0.500000  -0.000000   x
            x  Si                5         0.756020   0.250000   0.750000   x
            x  Si                6         0.256020   0.250000   0.250000   x
            x  Si                7         0.256020   0.750000   0.750000   x
            x  Si                8         0.756020   0.750000   0.250000   x
            xxxxxxxxxxxxxxxxxxxxxxxxxxxxxxxxxxxxxxxxxxxxxxxxxxxxxxxxxxxxxxxxx
 
 
------------------------------------------------------------------------ <-- SCF
SCF loop      Energy                           Energy gain       Timer   <-- SCF
                                               per atom          (sec)   <-- SCF
------------------------------------------------------------------------ <-- SCF
Initial  -8.58282542E+002                                        215.41  <-- SCF
      1  -8.58282990E+002                    5.60000150E-005     219.56  <-- SCF
      2  -8.58282990E+002                    3.08938308E-009     224.42  <-- SCF
      3  -8.58282990E+002                    1.66025957E-009     229.26  <-- SCF
      4  -8.58282990E+002                    8.84243204E-010     234.03  <-- SCF
------------------------------------------------------------------------ <-- SCF
 
Final energy =  -858.2829900781     eV
(energy not corrected for finite basis set)
 
 
 ************************************** Forces **************************************
 *                                                                                  *
 *                           Cartesian components (eV/A)                            *
 * -------------------------------------------------------------------------------- *
 *                         x                    y                    z              *
 *                                                                                  *
 * Si              1      0.00014              0.00000             -0.00000         *
 * Si              2      0.00014              0.00000              0.00000         *
 * Si              3      0.00011             -0.00000             -0.00000         *
 * Si              4      0.00011             -0.00000             -0.00000         *
 * Si              5     -0.00012             -0.00000              0.00000         *
 * Si              6     -0.00013             -0.00000             -0.00000         *
 * Si              7     -0.00013              0.00000             -0.00000         *
 * Si              8     -0.00012             -0.00000              0.00000         *
 *                                                                                  *
 ************************************************************************************
  
 +------------+-------------+-------------+-----------------+ <-- min BFGS
 |    Step    |   lambda    |   F.delta'  |    enthalpy     | <-- min BFGS
 +------------+-------------+-------------+-----------------+ <-- min BFGS
 |  previous  |    0.000000 |    0.000023 |     -858.282990 | <-- min BFGS
 | trial step |    1.000000 |   -0.000069 |     -858.282990 | <-- min BFGS
 +------------+-------------+-------------+-----------------+ <-- min BFGS
  
 BFGS: finished iteration     3 with enthalpy= -8.58282990E+002 eV
  
 +-----------+-----------------+-----------------+------------+-----+ <-- BFGS
 | Parameter |      value      |    tolerance    |    units   | OK? | <-- BFGS
 +-----------+-----------------+-----------------+------------+-----+ <-- BFGS
 |  dE/ion   |   1.304391E-008 |   5.000000E-006 |         eV | Yes | <-- BFGS
 |  |F|max   |   1.411925E-004 |   1.000000E-002 |       eV/A | Yes | <-- BFGS
 |  |dR|max  |   1.507391E-006 |   5.000000E-004 |          A | Yes | <-- BFGS
 +-----------+-----------------+-----------------+------------+-----+ <-- BFGS
  
 BFGS: Geometry optimization completed successfully.

================================================================================
 BFGS: Final Configuration:
================================================================================
 
                           -------------------------------
                                     Cell Contents
                           -------------------------------
 
            xxxxxxxxxxxxxxxxxxxxxxxxxxxxxxxxxxxxxxxxxxxxxxxxxxxxxxxxxxxxxxxxx
            x  Element         Atom        Fractional coordinates of atoms  x
            x                 Number           u          v          w      x
            x---------------------------------------------------------------x
            x  Si                1        -0.006020  -0.000000   0.000000   x
            x  Si                2        -0.006020   0.500000   0.500000   x
            x  Si                3         0.493980   0.000000   0.500000   x
            x  Si                4         0.493980   0.500000  -0.000000   x
            x  Si                5         0.756020   0.250000   0.750000   x
            x  Si                6         0.256020   0.250000   0.250000   x
            x  Si                7         0.256020   0.750000   0.750000   x
            x  Si                8         0.756020   0.750000   0.250000   x
            xxxxxxxxxxxxxxxxxxxxxxxxxxxxxxxxxxxxxxxxxxxxxxxxxxxxxxxxxxxxxxxxx
 
 
 BFGS: Final Enthalpy     = -8.58282990E+002 eV
 BFGS: Final <frequency>  =     553.28081 cm-1
 
 ************************************** Forces **************************************
 *                                                                                  *
 *                           Cartesian components (eV/A)                            *
 * -------------------------------------------------------------------------------- *
 *                         x                    y                    z              *
 *                                                                                  *
 * Si              1      0.00014              0.00000             -0.00000         *
 * Si              2      0.00014              0.00000              0.00000         *
 * Si              3      0.00011             -0.00000             -0.00000         *
 * Si              4      0.00011             -0.00000             -0.00000         *
 * Si              5     -0.00012             -0.00000              0.00000         *
 * Si              6     -0.00013             -0.00000             -0.00000         *
 * Si              7     -0.00013              0.00000             -0.00000         *
 * Si              8     -0.00012             -0.00000              0.00000         *
 *                                                                                  *
 ************************************************************************************
 
 ***************** Stress Tensor *****************
 *                                               *
 *          Cartesian components (GPa)           *
 * --------------------------------------------- *
 *             x             y             z     *
 *                                               *
 *  x     -6.290017     -0.000001      0.000001  *
 *  y     -0.000001     -3.100609     -5.927753  *
 *  z      0.000001     -5.927753     -3.100608  *
 *                                               *
 *  Pressure:    4.1637                          *
 *                                               *
 *************************************************

Writing analysis data to Si.castep_bin

Writing model to Si.check
 
 A BibTeX formatted list of references used in this run has been written to 
 Si.bib
 
Initialisation time =      0.64 s
Calculation time    =    244.64 s
Finalisation time   =      0.56 s
Total time          =    245.84 s
  
Overall parallel efficiency rating: Excellent (99%)                             
  
Data was distributed by:-
k-point (8-way); efficiency rating: Excellent (99%)                             
  
Parallel notes:
1) Calculation only took 245.5 s, so efficiency estimates may be inaccurate.    
